<?xml version="1.0" encoding="UTF-8" ?>
<psml version="1.1" energy_unit="hartree" length_unit="bohr"
 uuid="90ed5050-7302-11e7-5555-74a3ff8d9fbb"
 xmlns="http://esl.cecam.org/PSML/ns/1.1">
<provenance creator="ONCVPSP-3.3.0+psml-3.3.0-73 (scalar-relativistic)"
 date="2017-07-27">
<annotation action="semilocal-pseudopotential-generation"
 action-cont="projectors-generation" />
<input-file name="oncvpsp-input">
<![CDATA[# ATOM AND REFERENCE CONFIGURATION
# atsym, z, nc, nv, iexc   psfile
    Si  14     3   2   3   psp8
#
# n, l, f  (nc+nv lines)
    1    0    2.0
    2    0    2.0
    2    1    6.0
    3    0    2.0
    3    1    2.0
#
# PSEUDOPOTENTIAL AND OPTIMIZATION
# lmax
    2
#
# l, rc, ep, ncon, nbas, qcut  (lmax+1 lines, l's must be in order)
    0    2.70    0.00    5    8    5.00
    1    2.70    0.00    5    8    5.00
    2    2.70    0.10    5    8    5.00
#
# LOCAL POTENTIAL
# lloc, lpopt, rc(5), dvloc0
    4    5    2.7  0.0
#
# VANDERBILT-KLEINMAN-BYLANDER PROJECTORs
# l, nproj, debl  (lmax+1 lines, l's in order)
    0    2    1.0
    1    2    0.75
    2    2    0.75
#
# MODEL CORE CHARGE
# icmod, fcfact
   1    0.25
#
# LOG DERIVATIVE ANALYSIS
# epsh1, epsh2, depsh
   -2.0  2.0  0.02
#
# OUTPUT GRID
# rlmax, drl
    5.0  0.01
#
# TEST CONFIGURATIONS
# ncnf
    3
#
#   nvcnf (repeated ncnf times)
#   n, l, f  (nvcnf lines, repeated follwing nvcnf's ncnf times)
    2
    3    0    1.0
    3    1    2.0
#
    2
    3    0    2.0
    3    1    1.0
#
    2
    3    0    1.0
    3    1    1.0
]]>
</input-file>
</provenance>
<pseudo-atom-spec atomic-label="Si" atomic-number="14" z-pseudo="4"
 flavor="Hamann&apos;s oncvpsp" relativity="scalar" spin-dft="no"
 core-corrections="yes">
<annotation pseudo-energy="-3.79221256038" />
<exchange-correlation>
<annotation oncvpsp-xc-code="3"
 oncvpsp-xc-type="LDA -- Ceperley-Alder Perdew-Zunger" />
<libxc-info number-of-functionals="2">
<functional name="Slater exchange (LDA)" type="exchange" id="1" />
<functional name="Perdew &amp; Zunger (LDA)" type="correlation" id="9" />
</libxc-info>
</exchange-correlation>
<valence-configuration total-valence-charge="4">
<shell n="3" l="s" occupation="2" />
<shell n="3" l="p" occupation="2" />
</valence-configuration>
</pseudo-atom-spec>
<grid npts="457">
<annotation type="sampled from oncvpsp log grid"
 recipe="r(i:1..N) = r1*exp(a*(i-1)) + r=0; resampled"
 recipe-cont="r1: scale; a: step" scale="0.357142857143E-04"
 step="0.119285708653E-01" delta="0.500000000000E-02" rmax="44.1697227368" />
<grid-data>
  0.000000000000E+00  5.043762840785E-03  1.007452045417E-02  1.511338716874E-02
  2.012306398724E-02  2.524200484366E-02  3.055005847129E-02  3.567456681735E-02
  4.067657200651E-02  4.582995923277E-02  5.102395083885E-02  5.613299095240E-02
  6.175360044568E-02  6.713142577090E-02  7.297758014932E-02  7.839214240648E-02
  8.420843742015E-02  8.938366768873E-02  9.487695407084E-02  1.007078434632E-01
  1.068970840635E-01  1.121212442685E-01  1.176007140554E-01  1.233479706417E-01
  1.293761010181E-01  1.356988317486E-01  1.423305602273E-01  1.475161931447E-01
  1.528907580013E-01  1.584611382921E-01  1.642344683032E-01  1.702181422495E-01
  1.764198237449E-01  1.828474556171E-01  1.895092700805E-01  1.964137992801E-01
  2.035698862185E-01  2.109866960820E-01  2.160807588722E-01  2.212978127144E-01
  2.266408271046E-01  2.321128432342E-01  2.377169757212E-01  2.434564143831E-01
  2.493344260519E-01  2.553543564345E-01  2.615196320163E-01  2.678337620117E-01
  2.743003403617E-01  2.809230477794E-01  2.877056538450E-01  2.946520191514E-01
  3.017660975018E-01  3.090519381599E-01  3.165136881548E-01  3.241555946416E-01
  3.319820073186E-01  3.399973809033E-01  3.482062776679E-01  3.566133700359E-01
  3.652234432420E-01  3.740413980557E-01  3.830722535703E-01  3.923211500605E-01
  4.017933519076E-01  4.114942505960E-01  4.214293677824E-01  4.264865201958E-01
  4.316043584382E-01  4.367836107394E-01  4.420250140683E-01  4.473293142371E-01
  4.526972660080E-01  4.581296332001E-01  4.636271887985E-01  4.691907150641E-01
  4.748210036448E-01  4.805188556886E-01  4.862850819568E-01  4.921205029403E-01
  4.980259489756E-01  5.040022603633E-01  5.100502874877E-01  5.161708909375E-01
  5.223649416288E-01  5.286333209283E-01  5.349769207794E-01  5.413966438288E-01
  5.478934035547E-01  5.544681243974E-01  5.611217418902E-01  5.678552027928E-01
  5.746694652264E-01  5.815654988091E-01  5.885442847948E-01  5.956068162123E-01
  6.027540980069E-01  6.099871471830E-01  6.173069929492E-01  6.247146768645E-01
  6.322112529869E-01  6.397977880228E-01  6.474753614790E-01  6.552450658168E-01
  6.631080066066E-01  6.710653026859E-01  6.791180863181E-01  6.872675033539E-01
  6.955147133942E-01  7.038608899549E-01  7.123072206343E-01  7.208549072820E-01
  7.295051661693E-01  7.382592281634E-01  7.471183389013E-01  7.560837589681E-01
  7.651567640758E-01  7.743386452447E-01  7.836307089876E-01  7.930342774955E-01
  8.025506888254E-01  8.121812970913E-01  8.219274726564E-01  8.317906023283E-01
  8.417720895562E-01  8.518733546309E-01  8.620958348865E-01  8.724409849051E-01
  8.829102767240E-01  8.935052000447E-01  9.042272624452E-01  9.150779895945E-01
  9.260589254697E-01  9.371716325753E-01  9.484176921662E-01  9.597987044722E-01
  9.713162889259E-01  9.829720843930E-01  9.947677494057E-01  1.006704962399E+00
  1.018785421947E+00  1.031010847011E+00  1.043382977175E+00  1.055903572901E+00
  1.068574415776E+00  1.081397308765E+00  1.094374076470E+00  1.107506565388E+00
  1.120796644173E+00  1.134246203903E+00  1.147857158349E+00  1.161631444250E+00
  1.175571021581E+00  1.189677873840E+00  1.203954008326E+00  1.218401456426E+00
  1.233022273903E+00  1.247818541190E+00  1.262792363684E+00  1.277945872048E+00
  1.293281222513E+00  1.308800597183E+00  1.324506204349E+00  1.340400278801E+00
  1.356485082147E+00  1.372762903132E+00  1.389236057970E+00  1.405906890666E+00
  1.422777773354E+00  1.439851106634E+00  1.457129319914E+00  1.474614871753E+00
  1.492310250214E+00  1.510217973216E+00  1.528340588895E+00  1.546680675961E+00
  1.565240844073E+00  1.584023734202E+00  1.603032019012E+00  1.622268403240E+00
  1.641735624079E+00  1.661436451568E+00  1.681373688987E+00  1.701550173255E+00
  1.721968775334E+00  1.742632400638E+00  1.763543989446E+00  1.784706517319E+00
  1.806122995527E+00  1.827796471473E+00  1.849730029131E+00  1.871926789480E+00
  1.894389910954E+00  1.917122589886E+00  1.940128060964E+00  1.963409597696E+00
  1.986970512868E+00  2.010814159023E+00  2.034943928931E+00  2.059363256078E+00
  2.084075615151E+00  2.109084522533E+00  2.134393536803E+00  2.160006259245E+00
  2.185926334356E+00  2.212157450368E+00  2.238703339772E+00  2.265567779850E+00
  2.292754593208E+00  2.320267648326E+00  2.348110860106E+00  2.376288190428E+00
  2.404803648713E+00  2.433661292497E+00  2.462865228007E+00  2.492419610743E+00
  2.522328646072E+00  2.552596589825E+00  2.583227748903E+00  2.614226481890E+00
  2.645597199672E+00  2.677344366069E+00  2.709472498461E+00  2.741986168443E+00
  2.774890002464E+00  2.808188682494E+00  2.841886946684E+00  2.875989590044E+00
  2.910501465124E+00  2.945427482706E+00  2.980772612498E+00  3.016541883848E+00
  3.052740386455E+00  3.089373271092E+00  3.126445750345E+00  3.163963099349E+00
  3.201930656541E+00  3.240353824420E+00  3.279238070313E+00  3.318588927157E+00
  3.358411994283E+00  3.398712938214E+00  3.439497493473E+00  3.480771463394E+00
  3.522540720955E+00  3.564811209606E+00  3.607588944122E+00  3.650880011451E+00
  3.694690571589E+00  3.739026858448E+00  3.783895180749E+00  3.829301922918E+00
  3.875253545993E+00  3.921756588545E+00  3.968817667608E+00  4.016443479619E+00
  4.064640801374E+00  4.113416490991E+00  4.162777488883E+00  4.212730818749E+00
  4.263283588574E+00  4.314442991637E+00  4.366216307537E+00  4.418610903227E+00
  4.471634234066E+00  4.525293844875E+00  4.579597371013E+00  4.634552539465E+00
  4.690167169939E+00  4.746449175978E+00  4.803406566090E+00  4.861047444883E+00
  4.919380014222E+00  4.978412574392E+00  5.038153525285E+00  5.098611367588E+00
  5.159794703999E+00  5.221712240447E+00  5.284372787333E+00  5.347785260781E+00
  5.411958683910E+00  5.476902188117E+00  5.542625014375E+00  5.609136514547E+00
  5.676446152722E+00  5.744563506554E+00  5.813498268633E+00  5.883260247857E+00
  5.953859370831E+00  6.025305683281E+00  6.097609351480E+00  6.170780663698E+00
  6.244830031662E+00  6.319767992042E+00  6.395605207947E+00  6.472352470442E+00
  6.550020700087E+00  6.628620948488E+00  6.708164399870E+00  6.788662372669E+00
  6.870126321141E+00  6.952567836994E+00  7.035998651038E+00  7.120430634851E+00
  7.205875802469E+00  7.292346312099E+00  7.379854467844E+00  7.468412721458E+00
  7.558033674116E+00  7.648730078205E+00  7.740514839143E+00  7.833401017213E+00
  7.927401829420E+00  8.022530651373E+00  8.118801019189E+00  8.216226631419E+00
  8.314821350996E+00  8.414599207208E+00  8.515574397695E+00  8.617761290467E+00
  8.721174425953E+00  8.825828519064E+00  8.931738461293E+00  9.038919322829E+00
  9.147386354702E+00  9.257154990959E+00  9.368240850850E+00  9.480659741061E+00
  9.594427657953E+00  9.709560789849E+00  9.826075519327E+00  9.943988425559E+00
  1.006331628667E+01  1.018407608211E+01  1.030628499509E+01  1.042996041503E+01
  1.055511994001E+01  1.068178137929E+01  1.080996275584E+01  1.093968230891E+01
  1.107095849662E+01  1.120380999858E+01  1.133825571856E+01  1.147431478719E+01
  1.161200656463E+01  1.175135064341E+01  1.189236685113E+01  1.203507525334E+01
  1.217949615638E+01  1.232565011026E+01  1.247355791158E+01  1.262324060652E+01
  1.277471949380E+01  1.292801612773E+01  1.308315232126E+01  1.324015014911E+01
  1.339903195090E+01  1.355982033431E+01  1.372253817832E+01  1.388720863646E+01
  1.405385514010E+01  1.422250140178E+01  1.439317141861E+01  1.456588947563E+01
  1.474068014934E+01  1.491756831113E+01  1.509657913086E+01  1.527773808043E+01
  1.546107093740E+01  1.564660378865E+01  1.583436303411E+01  1.602437539052E+01
  1.621666789521E+01  1.641126790995E+01  1.660820312487E+01  1.680750156237E+01
  1.700919158111E+01  1.721330188009E+01  1.741986150265E+01  1.762889984068E+01
  1.784044663877E+01  1.805453199843E+01  1.827118638241E+01  1.849044061900E+01
  1.871232590643E+01  1.893687381731E+01  1.916411630312E+01  1.939408569875E+01
  1.962681472714E+01  1.986233650386E+01  2.010068454191E+01  2.034189275641E+01
  2.058599546949E+01  2.083302741512E+01  2.108302374411E+01  2.133602002904E+01
  2.159205226938E+01  2.185115689662E+01  2.211337077938E+01  2.237873122873E+01
  2.264727600347E+01  2.291904331551E+01  2.319407183530E+01  2.347240069732E+01
  2.375406950569E+01  2.403911833976E+01  2.432758775984E+01  2.461951881296E+01
  2.491495303871E+01  2.521393247518E+01  2.551649966488E+01  2.582269766086E+01
  2.613257003279E+01  2.644616087318E+01  2.676351480366E+01  2.708467698130E+01
  2.740969310508E+01  2.773860942234E+01  2.807147273541E+01  2.840833040823E+01
  2.874923037313E+01  2.909422113761E+01  2.944335179126E+01  2.979667201275E+01
  3.015423207691E+01  3.051608286183E+01  3.088227585617E+01  3.125286316645E+01
  3.162789752444E+01  3.200743229474E+01  3.239152148227E+01  3.278021974006E+01
  3.317358237694E+01  3.357166536547E+01  3.397452534985E+01  3.438221965405E+01
  3.479480628990E+01  3.521234396538E+01  3.563489209296E+01  3.606251079808E+01
  3.649526092765E+01  3.693320405879E+01  3.737640250749E+01  3.782491933758E+01
  3.827881836963E+01  3.873816419007E+01  3.920302216035E+01  3.967345842627E+01
  4.014953992739E+01  4.063133440652E+01  4.111891041939E+01  4.161233734443E+01
  4.211168539256E+01  4.261702561727E+01  4.312842992468E+01  4.364597108377E+01
  4.416972273678E+01
</grid-data>
</grid>
<valence-charge total-charge="4" is-unscreening-charge="yes"
 rescaled-to-z-pseudo="no">
<radfunc>
<data npts="457">
  7.354058201304E-02  7.355671145616E-02  7.360493413069E-02  7.368540822520E-02
  7.379734089276E-02  7.394460224937E-02  7.413241984378E-02  7.434767320296E-02
  7.458994007216E-02  7.487277964228E-02  7.519199957516E-02  7.553946505173E-02
  7.596008692346E-02  7.640019103535E-02  7.692042128406E-02  7.744111564537E-02
  7.804212079213E-02  7.861320835885E-02  7.925685025799E-02  7.998228967061E-02
  8.079995316826E-02  8.152834059817E-02  8.232995946371E-02  8.321219896621E-02
  8.418319808080E-02  8.525192206466E-02  8.642824671964E-02  8.738760706587E-02
  8.841858221537E-02  8.952654050544E-02  9.071725420086E-02  9.199692967646E-02
  9.337223972335E-02  9.485035808550E-02  9.643899632614E-02  9.814644311236E-02
  9.998160598924E-02  1.019540556914E-01  1.033503388564E-01  1.048154235773E-01
  1.063526981685E-01  1.079657146702E-01  1.096581960263E-01  1.114340434429E-01
  1.132973439056E-01  1.152523778340E-01  1.173036268388E-01  1.194557815458E-01
  1.217137494392E-01  1.240826626693E-01  1.265678857595E-01  1.291750231334E-01
  1.319099263716E-01  1.347787010911E-01  1.377877133231E-01  1.409435952465E-01
  1.442532501102E-01  1.477238561564E-01  1.513628693258E-01  1.551780245007E-01
  1.591773350026E-01  1.633690900309E-01  1.677618496841E-01  1.723644371647E-01
  1.771859277210E-01  1.822356338282E-01  1.875230860577E-01  1.902589991002E-01
  1.930580090264E-01  1.959213568724E-01  1.988502917582E-01  2.018460696036E-01
  2.049099517268E-01  2.080432033187E-01  2.112470917859E-01  2.145228849550E-01
  2.178718491302E-01  2.212952469969E-01  2.247943353638E-01  2.283703627339E-01
  2.320245666967E-01  2.357581711342E-01  2.395723832289E-01  2.434683902688E-01
  2.474473562367E-01  2.515104181779E-01  2.556586823345E-01  2.598932200393E-01
  2.642150633593E-01  2.686252004798E-01  2.731245708206E-01  2.777140598757E-01
  2.823944937686E-01  2.871666335144E-01  2.920311689823E-01  2.969887125512E-01
  3.020397924517E-01  3.071848457903E-01  3.124242112501E-01  3.177581214645E-01
  3.231866950618E-01  3.287099283804E-01  3.343276868522E-01  3.400396960589E-01
  3.458455324638E-01  3.517446138231E-01  3.577361892873E-01  3.638193291998E-01
  3.699929146075E-01  3.762556264968E-01  3.826059347743E-01  3.890420870135E-01
  3.955620969922E-01  4.021637330478E-01  4.088445062856E-01  4.156016586733E-01
  4.224321510647E-01  4.293326511970E-01  4.362995217114E-01  4.433288082536E-01
  4.504162277118E-01  4.575571566609E-01  4.647466200813E-01  4.719792804310E-01
  4.792494271520E-01  4.865509667005E-01  4.938774131942E-01  5.012218797776E-01
  5.085770708100E-01  5.159352749880E-01  5.232883595202E-01  5.306277654747E-01
  5.379445044271E-01  5.452291565406E-01  5.524718702132E-01  5.596623634301E-01
  5.667899269641E-01  5.738434295653E-01  5.808113252863E-01  5.876816630845E-01
  5.944420988463E-01  6.010799099725E-01  6.075820126599E-01  6.139349820122E-01
  6.201250751005E-01  6.261382570907E-01  6.319602305377E-01  6.375764679403E-01
  6.429722476286E-01  6.481326930429E-01  6.530428154413E-01  6.576875600517E-01
  6.620518556572E-01  6.661206675788E-01  6.698790539893E-01  6.733122254567E-01
  6.764056075845E-01  6.791449065774E-01  6.815161775205E-01  6.835058951194E-01
  6.851010266069E-01  6.862891064737E-01  6.870583126386E-01  6.873975436236E-01
  6.872964962553E-01  6.867457433661E-01  6.857368109234E-01  6.842622539719E-01
  6.823157307320E-01  6.798920741609E-01  6.769873602472E-01  6.735989722839E-01
  6.697256603396E-01  6.653675951364E-01  6.605264155329E-01  6.552052688165E-01
  6.494088430210E-01  6.431433905124E-01  6.364167421215E-01  6.292383111550E-01
  6.216190866809E-01  6.135716155650E-01  6.051099728292E-01  5.962497200141E-01
  5.870078513518E-01  5.774027276954E-01  5.674539983032E-01  5.571825107404E-01
  5.466102093359E-01  5.357600228125E-01  5.246557418969E-01  5.133218879026E-01
  5.017835734659E-01  4.900663567931E-01  4.781960909464E-01  4.661987698482E-01
  4.541003728122E-01  4.419267095205E-01  4.297032674343E-01  4.174550636690E-01
  4.052065033617E-01  3.929812465148E-01  3.808020852078E-01  3.686908329306E-01
  3.566682276021E-01  3.447538496001E-01  3.329660558440E-01  3.213219306439E-01
  3.098372536628E-01  2.985264849423E-01  2.874027665204E-01  2.764779397410E-01
  2.657625769218E-01  2.552660256306E-01  2.449964634389E-01  2.349609606765E-01
  2.251655484458E-01  2.156152889566E-01  2.063143451578E-01  1.972660466625E-01
  1.884729491204E-01  1.799368844762E-01  1.716589999871E-01  1.636397847455E-01
  1.558790900298E-01  1.483761593299E-01  1.411296647525E-01  1.341377426047E-01
  1.273980295168E-01  1.209076982757E-01  1.146634933263E-01  1.086617657775E-01
  1.028985077907E-01  9.736938623465E-02  9.206977550343E-02  8.699478940301E-02
  8.213931202439E-02  7.749802753083E-02  7.306544879718E-02  6.883594484937E-02
  6.480376706144E-02  6.096307407688E-02  5.730795542975E-02  5.383245384931E-02
  5.053058623969E-02  4.739636333362E-02  4.442380802575E-02  4.160697239771E-02
  3.893995345262E-02  3.641690758207E-02  3.403206379339E-02  3.177973572911E-02
  2.965433251443E-02  2.765036847158E-02  2.576247174296E-02  2.398539186698E-02
  2.231400635272E-02  2.074332630086E-02  1.926850111942E-02  1.788482238368E-02
  1.658772689008E-02  1.537279895378E-02  1.423577199967E-02  1.317252949588E-02
  1.217910527837E-02  1.125168331397E-02  1.038659694849E-02  9.580327684884E-03
  8.829503535286E-03  8.130896988983E-03  7.481422636862E-03  6.878134491048E-03
  6.318223036637E-03  5.799012050578E-03  5.317955220840E-03  4.872632597079E-03
  4.460746902098E-03  4.080119731457E-03  3.728687666725E-03  3.404498325940E-03
  3.105706373071E-03  2.830569506441E-03  2.577444444383E-03  2.344782924685E-03
  2.131127732828E-03  1.935108772448E-03  1.755439189998E-03  1.590911564223E-03
  1.440394169724E-03  1.302827322671E-03  1.177219815571E-03  1.062645446911E-03
  9.582396505130E-04  8.631962284976E-04  7.767641909100E-04  6.982447042811E-04
  6.269881506809E-04  5.623912981774E-04  5.038945830281E-04  4.509795034062E-04
  4.031661239951E-04  3.600106903664E-04  3.211033516899E-04  2.860659900026E-04
  2.545501539850E-04  2.262350949497E-04  2.008259025495E-04  1.780517375365E-04
  1.576641587656E-04  1.394355415238E-04  1.231575841778E-04  1.086399000667E-04
  9.570869152490E-05  8.420550288854E-05  7.398604933302E-05  6.491911839038E-05
  5.688554101278E-05  4.977722907675E-05  4.349627626028E-05  3.795411927244E-05
  3.307075646895E-05  2.877402094882E-05  2.499890529375E-05  2.168693518394E-05
  1.878558919998E-05  1.624776220001E-05  1.403126974398E-05  1.209839112146E-05
  1.041544862668E-05  8.952420812139E-06  7.682587541904E-06  6.582204754914E-06
  5.630206939208E-06  4.807935407522E-06  4.098890554415E-06  3.488506363772E-06
  2.963945523329E-06  2.513913589366E-06  2.128490729680E-06  1.798979656227E-06
  1.517768440109E-06  1.278206980760E-06  1.074495978064E-06  9.015873305420E-07
  7.550949545915E-07  6.312150889045E-07  5.266552145245E-07  4.385707845114E-07
  3.645090177504E-07  3.023590690728E-07  2.503079425179E-07  2.068015662639E-07
  1.705104965091E-07  1.402997634227E-07  1.152024152585E-07  9.439635689349E-08
  7.718411649098E-08  6.297520877587E-08  5.127079564275E-08  4.165037459311E-08
  3.376025292428E-08  2.730359078008E-08  2.203181923574E-08  1.773726064562E-08
  1.424679764834E-08  1.141645461932E-08  9.126771101441E-09  7.278860946898E-09
  5.791063678971E-09  4.596106041131E-09  3.638701947853E-09  2.873528187579E-09
  2.263521349782E-09  1.778448646137E-09  1.393711656390E-09  1.089347633247E-09
  8.491979227059E-10  6.602173666748E-10  5.119023180474E-10  3.958181741285E-10
  3.052101769390E-10  2.346836882011E-10  1.799422678865E-10  1.375737089745E-10
  1.048757443308E-10  7.971447742395E-11  6.040972646238E-11  4.564243774127E-11
  3.438014183398E-11  2.581711631893E-11  1.932649909950E-11  1.442208290860E-11
  1.072792813521E-11  7.954269702056E-12  5.878474789598E-12  4.330040735979E-12
  3.178814180880E-12  2.325770083730E-12  1.695818283425E-12  1.232210577348E-12
  8.922069457627E-13  6.437289601559E-13  4.627844691338E-13  3.314927616331E-13
  2.365755718581E-13  1.682081802814E-13  1.191478585169E-13  8.407513826655E-14
  5.909778730817E-14  4.137870980615E-14  2.885787355275E-14  2.004530520690E-14
  1.386759151491E-14  9.554505720171E-15  6.555604756180E-15  4.479121981509E-15
  3.047380543529E-15  2.064390533108E-15  1.392405919128E-15  9.350307353879E-16
  6.250990639534E-16  4.160172852026E-16  2.756067253154E-16  1.817440520312E-16
  1.192884285501E-16  7.792549949631E-17  5.066163203015E-17  3.277720164544E-17
  2.110241457272E-17  1.351867422436E-17  8.616906968456E-18  5.464585797244E-18
  3.447658503335E-18  2.163835396947E-18  1.350915166545E-18  8.388898713827E-19
  0.000000000000E+00  0.000000000000E+00  0.000000000000E+00  0.000000000000E+00
  0.000000000000E+00  0.000000000000E+00  0.000000000000E+00  0.000000000000E+00
  0.000000000000E+00  0.000000000000E+00  0.000000000000E+00  0.000000000000E+00
  0.000000000000E+00  0.000000000000E+00  0.000000000000E+00  0.000000000000E+00
  0.000000000000E+00  0.000000000000E+00  0.000000000000E+00  0.000000000000E+00
  0.000000000000E+00
</data>
</radfunc>
</valence-charge>
<pseudocore-charge matching-radius="1.40590689067"
 number-of-continuous-derivatives="4">
<annotation model-charge-form="Polynomial" />
<radfunc>
<data npts="275">
  7.023013305938E+00  7.023013285261E+00  7.023012938295E+00  7.023011389611E+00
  7.023007223321E+00  7.022998206682E+00  7.022980945681E+00  7.022953325718E+00
  7.022912367061E+00  7.022851512688E+00  7.022766215816E+00  7.022653656094E+00
  7.022490351052E+00  7.022288303312E+00  7.022009085177E+00  7.021686589461E+00
  7.021261830881E+00  7.020807012532E+00  7.020235705418E+00  7.019518614646E+00
  7.018619261312E+00  7.017738415710E+00  7.016683934416E+00  7.015422360121E+00
  7.013913992473E+00  7.012111777464E+00  7.009960013891E+00  7.008077615655E+00
  7.005929717747E+00  7.003480015977E+00  7.000687462715E+00  6.997505690178E+00
  6.993882372125E+00  6.989758519155E+00  6.985067702803E+00  6.979735203762E+00
  6.973677079854E+00  6.966799149839E+00  6.961706806951E+00  6.956169154228E+00
  6.950149240287E+00  6.943607297168E+00  6.936500557525E+00  6.928783064204E+00
  6.920405472528E+00  6.911314845726E+00  6.901454444107E+00  6.890763508755E+00
  6.879177040685E+00  6.866625576671E+00  6.853034963157E+00  6.838326129977E+00
  6.822414865923E+00  6.805211598528E+00  6.786621180855E+00  6.766542688497E+00
  6.744869230472E+00  6.721487778228E+00  6.696279017540E+00  6.669117228693E+00
  6.639870201031E+00  6.608399188667E+00  6.574558914892E+00  6.538197633676E+00
  6.499157257465E+00  6.457273561390E+00  6.412376474906E+00  6.388743258774E+00
  6.364290472814E+00  6.338995406614E+00  6.312835078530E+00  6.285786258535E+00
  6.257825493373E+00  6.228929134156E+00  6.199073366520E+00  6.168234243469E+00
  6.136387721038E+00  6.103509696908E+00  6.069576052092E+00  6.034562695851E+00
  5.998445613944E+00  5.961200920362E+00  5.922804912686E+00  5.883234131168E+00
  5.842465421704E+00  5.800476002783E+00  5.757243536567E+00  5.712746204186E+00
  5.666962785377E+00  5.619872742545E+00  5.571456309360E+00  5.521694583937E+00
  5.470569626686E+00  5.418064562868E+00  5.364163689891E+00  5.308852589355E+00
  5.252118243840E+00  5.193949158393E+00  5.134335486658E+00  5.073269161550E+00
  5.010744030347E+00  4.946755994040E+00  4.881303150719E+00  4.814385942773E+00
  4.746007307571E+00  4.676172831304E+00  4.604890905556E+00  4.532172886150E+00
  4.458033253713E+00  4.382489775372E+00  4.305563666880E+00  4.227279754404E+00
  4.147666635130E+00  4.066756835723E+00  3.984586967604E+00  3.901197877890E+00
  3.816634794727E+00  3.730947465663E+00  3.644190287536E+00  3.556422426292E+00
  3.467707924952E+00  3.378115797877E+00  3.287720109302E+00  3.196600033996E+00
  3.104839897760E+00  3.012529195340E+00  2.919762583203E+00  2.826639844480E+00
  2.733265823289E+00  2.639750325491E+00  2.546207982877E+00  2.452758077674E+00
  2.359524324199E+00  2.266634604455E+00  2.174220654464E+00  2.082417698134E+00
  1.991364025581E+00  1.901200512898E+00  1.812070080618E+00  1.724117088325E+00
  1.637486663274E+00  1.552323961285E+00  1.468773358798E+00  1.386977575624E+00
  1.307076728846E+00  1.229207319298E+00  1.153501153344E+00  1.080084204111E+00
  1.009075418077E+00  9.405854749451E-01  8.747155111131E-01  8.115558197834E-01
  7.511845439767E-01  6.936663823733E-01  6.390513321525E-01  5.873734978581E-01
  5.386500008800E-01  4.928800304938E-01  4.500440846360E-01  4.101034568237E-01
  3.730000349672E-01  3.386564884164E-01  3.069769315575E-01  2.778481658182E-01
  2.511416172123E-01  2.267161037727E-01  2.044215865951E-01  1.841040800072E-01
  1.656118420786E-01  1.488010172591E-01  1.335370991384E-01  1.196945593000E-01
  1.071564087490E-01  9.581376688817E-02  8.556543926552E-02  7.631750510618E-02
  6.798291554988E-02  6.048110337187E-02  5.373760484323E-02  4.768369427072E-02
  4.225603164649E-02  3.739632373590E-02  3.305099883604E-02  2.917089534979E-02
  2.571096423894E-02  2.262998534578E-02  1.989029750498E-02  1.745754230674E-02
  1.530042131744E-02  1.339046651507E-02  1.170182365414E-02  1.021104823696E-02
  8.896913735948E-03  7.740231684394E-03  6.723683230054E-03  5.831661727836E-03
  5.050125933256E-03  4.366463347944E-03  3.769363261325E-03  3.248699028884E-03
  2.795419126525E-03  2.401446522437E-03  2.059585912231E-03  1.763438369591E-03
  1.507322973211E-03  1.286204980996E-03  1.095630134184E-03  9.316646870679E-04
  7.908407720211E-04  6.701067244914E-04  5.667820082315E-04  4.785163971883E-04
  4.032530869702E-04  3.391954255189E-04  2.847769693931E-04  2.386345887991E-04
  1.995843610695E-04  1.666000085922E-04  1.387936531469E-04  1.153986741314E-04
  9.575447320232E-05  7.929296234585E-05  6.552660630664E-05  5.403786358762E-05
  4.446988287791E-05  3.651832374459E-05  2.992418173119E-05  2.446750863904E-05
  1.996192872793E-05  1.624986087176E-05  1.319836535375E-05  1.069554200355E-05
  8.647413785165E-06  6.975236763841E-06  5.613183637726E-06  4.506353743395E-06
  3.609067662222E-06  2.883409296088E-06  2.297982575880E-06  1.826853844429E-06
  1.448654446203E-06  1.145821188158E-06  9.039551376535E-07  7.112817212926E-07
  5.581973089142E-07  4.368894344506E-07  3.410195432802E-07  2.654586861049E-07
  2.060679228001E-07  1.595163752861E-07  1.231308939860E-07  9.477219421698E-08
  7.273309189311E-08  5.565513589097E-08  4.246050978343E-08  3.229656963443E-08
  2.449080731399E-08  1.851438943237E-08  1.395272863421E-08  1.048180386649E-08
  7.849165745295E-09  5.858747947027E-09  4.358760607404E-09  3.232071374035E-09
  2.388587815412E-09  1.759244631879E-09  1.291273388342E-09  9.444937457236E-10
  6.884155115760E-10  4.999820570759E-10  3.618192875543E-10  2.608817033013E-10
  1.874092415392E-10  1.341264696865E-10  9.563007536637E-11
</data>
</radfunc>
</pseudocore-charge>
<semilocal-potentials set="scalar_relativistic">
<slps n="3" l="s" rc="2.70947249846" eref="-0.399994987035">
<radfunc>
<data npts="275">
  5.655597056699E+00  5.654802830428E+00  5.652429055520E+00  5.648470221872E+00
  5.642969070259E+00  5.635740913407E+00  5.626537388243E+00  5.616010462888E+00
  5.604189213873E+00  5.590423979604E+00  5.574934227447E+00  5.558129123046E+00
  5.537862422384E+00  5.516746277624E+00  5.491902589790E+00  5.467162607992E+00
  5.438762039101E+00  5.411928062418E+00  5.381861818178E+00  5.348197085754E+00
  5.310532155217E+00  5.277226313601E+00  5.240837435213E+00  5.201106578313E+00
  5.157758334545E+00  5.110500863784E+00  5.059026196748E+00  5.017458630374E+00
  4.973195363919E+00  4.926090264481E+00  4.875993364192E+00  4.822751386056E+00
  4.766208380916E+00  4.706206485526E+00  4.642586811370E+00  4.575190473149E+00
  4.503859764776E+00  4.428439489231E+00  4.375812443987E+00  4.321257018892E+00
  4.264731081913E+00  4.206194095908E+00  4.145607380144E+00  4.082934384504E+00
  4.018140975600E+00  3.951195733805E+00  3.882070259961E+00  3.810739490335E+00
  3.737182018122E+00  3.661380419560E+00  3.583321582468E+00  3.502997034787E+00
  3.420403270428E+00  3.335542069563E+00  3.248420810213E+00  3.159052767858E+00
  3.067457399615E+00  2.973660609391E+00  2.877694990378E+00  2.779600041193E+00
  2.679422352010E+00  2.577215757115E+00  2.473041450456E+00  2.366968060990E+00
  2.259071684913E+00  2.149435872216E+00  2.038151565461E+00  1.981921641571E+00
  1.925316989137E+00  1.868350997590E+00  1.811037488564E+00  1.753390708072E+00
  1.695425317905E+00  1.637156386246E+00  1.578599377525E+00  1.519770141513E+00
  1.460684901690E+00  1.401360242895E+00  1.341813098290E+00  1.282060735663E+00
  1.222120743095E+00  1.162011014033E+00  1.101749731797E+00  1.041355353567E+00
  9.808465938855E-01  9.202424077206E-01  8.595619731460E-01  7.988246736746E-01
  7.380500803080E-01  6.772579333512E-01  6.164681240533E-01  5.557006761302E-01
  4.949757272327E-01  4.343135104225E-01  3.737343357210E-01  3.132585717970E-01
  2.529066278629E-01  1.926989358473E-01  1.326559329164E-01  7.279804441516E-02
  1.314566730204E-02 -4.628084584775E-02 -1.054612021963E-01 -1.643751832772E-01
 -2.230026588326E-01 -2.813235997759E-01 -3.393180901992E-01 -3.969663383478E-01
 -4.542486864786E-01 -5.111456195216E-01 -5.676377724611E-01 -6.237059363523E-01
 -6.793310628874E-01 -7.344942674252E-01 -7.891768303948E-01 -8.433601969847E-01
 -8.970259750253E-01 -9.501559309738E-01 -1.002731983905E+00 -1.054736197419E+00
 -1.106150769359E+00 -1.156958019264E+00 -1.207140373436E+00 -1.256680347560E+00
 -1.305560526756E+00 -1.353763543018E+00 -1.401272049931E+00 -1.448068694637E+00
 -1.494136086993E+00 -1.539456765904E+00 -1.584013162858E+00 -1.627755453828E+00
 -1.670707442342E+00 -1.712841438443E+00 -1.754139077042E+00 -1.794581668791E+00
 -1.834150150360E+00 -1.872825033996E+00 -1.910586357206E+00 -1.947413633649E+00