<?xml version="1.0" encoding="UTF-8" ?>
<psml version="1.2" energy_unit="hartree" length_unit="bohr"
 uuid="6c6f2690-6b30-11ee-5448-0b71b98f8f6a"
 xmlns="http://esl.cecam.org/PSML/ns/1.2">
<provenance creator="METAPSP-1.0.0+psml-4.0.1-81 (non-relativistic)"
 date="2023-10-15">
<annotation action="semilocal-pseudopotential-generation"
 action-cont="projectors-generation" />
<input-file name="oncvpsp-input">
<![CDATA[# ATOM AND REFERENCE CONFIGURATION
# atsym, z, nc, nv, iexc   psfile
#   Cu  29.    3   4   3   upf
    Cu  29.    3   4   3   psml
#   Cu  29.    3   4   3   psp8
#
# n, l, f  (nc+nv lines)
    1    0    2.0
    2    0    2.0
    2    1    6.0
    3    0    2.0
    3    1    6.0
    3    2   10.0
    4    0    1.0
#
# PSEUDOPOTENTIAL AND OPTIMIZATION
# lmax
    2
#
# l, rc, ep, ncon, nbas, qcut  (lmax+1 lines, l's must be in order)
    0    1.90    0.00    5    8    7.00
    1    2.10    0.00    5    8    8.00
    2    2.10    0.00    5    9    9.00
#
# LOCAL POTENTIAL
# lloc, lpopt, rc(5), dvloc0
    4    5    1.9    0.0
#
# VANDERBILT-KLEINMAN-BYLANDER PROJECTORs
# l, nproj, debl  (lmax+1 lines, l's in order)
    0    2    1.50
    1    2    3.00
    2    2    1.00
#
# MODEL CORE CHARGE
# icmod, fcfact
    5    2.0  0.5
#
# LOG DERIVATIVE ANALYSIS
# epsh1, epsh2, depsh
   -5.0  2.0  0.02
#
# OUTPUT GRID
# rlmax, drl
    6.0  0.01
#
# TEST CONFIGURATIONS
# ncnf
    3
#
#   nvcnf (repeated ncnf times)
#   n, l, f  (nvcnf lines, repeated follwing nvcnf's ncnf times)
    3
    3    0    2.0
    3    1    6.0
    3    2   10.0
#
    4
    3    0    2.0
    3    1    6.0
    3    2    9.0
    4    0    1.0
#
    3
    3    0    2.0
    3    1    6.0
    3    2    9.0
]]>
</input-file>
</provenance>
<pseudo-atom-spec atomic-label="Cu" atomic-number="29" z-pseudo="19"
 flavor="Hamann&apos;s oncvpsp" relativity="no" spin-dft="no"
 core-corrections="yes" meta-gga="yes">
<annotation pseudo-energy="0" cutoff_hint_low="26" cutoff_hint_normal="27"
 cutoff_hint_high="29" />
<exchange-correlation>
<annotation oncvpsp-xc-code="5" oncvpsp-xc-type="METAGGA -- Perdew" />
<libxc-info number-of-functionals="2">
<functional name="R2SCAN01 (MGGA)" type="exchange" id="645" />
<functional name="R2SCAN01 (MGGA)" type="correlation" id="642" />
</libxc-info>
</exchange-correlation>
<valence-configuration total-valence-charge="19">
<shell n="3" l="s" occupation="2" />
<shell n="3" l="p" occupation="6" />
<shell n="3" l="d" occupation="10" />
<shell n="4" l="s" occupation="1" />
</valence-configuration>
</pseudo-atom-spec>
<grid npts="1362">
<annotation type="sampled from oncvpsp log grid"
 recipe="r(i:1..N) = r1*exp(a*(i-1)) + r=0; resampled"
 recipe-cont="r1: scale; a: step" scale="0.172413793103E-04"
 step="0.299550897980E-02" delta="0.500000000000E-02" rmax="44.8200906030" />
<grid-data>
  0.000000000000E+00  5.003088832585E-03  1.002431429674E-02  1.506543116941E-02
  2.008496760347E-02  2.514439045988E-02  3.018547583534E-02  3.527333665723E-02
  4.036347319387E-02  4.536541802779E-02  5.037993151912E-02  5.544819708330E-02
  6.048037664236E-02  6.557520827347E-02  7.067454222354E-02  7.571544228898E-02
  8.087326748386E-02  8.612407757919E-02  9.116797550508E-02  9.621861588541E-02
  1.012453221498E-01  1.065346363891E-01  1.117649829658E-01  1.169014105802E-01
  1.219081705225E-01  1.271293645337E-01  1.321776436599E-01  1.374263888409E-01
  1.424561919635E-01  1.476700857813E-01  1.530748080100E-01  1.582027347615E-01
  1.635024444021E-01  1.689796915696E-01  1.741180694707E-01  1.794126964879E-01
  1.848683238846E-01  1.899200871402E-01  1.951098962841E-01  2.004415235967E-01
  2.059188444407E-01  2.115458400781E-01  2.166765708513E-01  2.219317398941E-01
  2.273143652722E-01  2.328275382500E-01  2.384744250662E-01  2.435276856946E-01
  2.486880246521E-01  2.539577109229E-01  2.593390615709E-01  2.648344427585E-01
  2.704462707868E-01  2.761770131584E-01  2.811856327635E-01  2.862850863960E-01
  2.914770213800E-01  2.967631149149E-01  3.021450746169E-01  3.076246390710E-01
  3.132035783921E-01  3.188836947972E-01  3.246668231874E-01  3.305548317409E-01
  3.365496225163E-01  3.416282473248E-01  3.467835099550E-01  3.520165668923E-01
  3.573285920739E-01  3.627207771518E-01  3.681943317606E-01  3.737504837885E-01
  3.793904796530E-01  3.851155845801E-01  3.909270828887E-01  3.968262782782E-01
  4.028144941214E-01  4.088930737608E-01  4.150633808107E-01  4.200665996635E-01
  4.251301278570E-01  4.302546923667E-01  4.354410289308E-01  4.406898821565E-01
  4.460020056262E-01  4.513781620063E-01  4.568191231566E-01  4.623256702406E-01
  4.678985938383E-01  4.735386940593E-01  4.792467806581E-01  4.850236731496E-01
  4.908702009276E-01  4.967872033833E-01  5.027755300261E-01  5.088360406056E-01
  5.149696052345E-01  5.211771045145E-01  5.274594296616E-01  5.338174826351E-01
  5.402521762663E-01  5.467644343900E-01  5.533551919770E-01  5.600253952683E-01
  5.650807596321E-01  5.701817589064E-01  5.753288050390E-01  5.805223136960E-01
  5.857627042958E-01  5.910504000431E-01  5.963858279626E-01  6.017694189340E-01
  6.072016077265E-01  6.126828330339E-01  6.182135375102E-01  6.237941678050E-01
  6.294251746002E-01  6.351070126458E-01  6.408401407969E-01  6.466250220505E-01
  6.524621235835E-01  6.583519167895E-01  6.642948773179E-01  6.702914851114E-01
  6.763422244454E-01  6.824475839667E-01  6.886080567332E-01  6.948241402538E-01
  7.010963365281E-01  7.074251520875E-01  7.138110980359E-01  7.202546900908E-01
  7.267564486251E-01  7.333168987093E-01  7.399365701535E-01  7.466159975505E-01
  7.533557203191E-01  7.601562827470E-01  7.670182340356E-01  7.739421283437E-01
  7.809285248327E-01  7.879779877114E-01  7.950910862819E-01  8.022683949852E-01
  8.095104934480E-01  8.168179665291E-01  8.241914043671E-01  8.316314024275E-01
  8.391385615512E-01  8.441809451676E-01  8.492536284671E-01  8.543567935206E-01
  8.594906234928E-01  8.646553026494E-01  8.698510163630E-01  8.750779511203E-01
  8.803362945286E-01  8.856262353225E-01  8.909479633705E-01  8.963016696824E-01
  9.016875464155E-01  9.071057868819E-01  9.125565855553E-01  9.180401380779E-01
  9.235566412676E-01  9.291062931250E-01  9.346892928404E-01  9.403058408011E-01
  9.459561385984E-01  9.516403890353E-01  9.573587961330E-01  9.631115651389E-01
  9.688989025339E-01  9.747210160392E-01  9.805781146246E-01  9.864704085153E-01
  9.923981092001E-01  9.983614294383E-01  1.004360583268E+00  1.010395786013E+00
  1.016467254291E+00  1.022575206022E+00  1.028719860435E+00  1.034901438076E+00
  1.041120160818E+00  1.047376251864E+00  1.053669935761E+00  1.060001438405E+00
  1.066370987049E+00  1.072778810310E+00  1.079225138181E+00  1.085710202036E+00
  1.092234234640E+00  1.098797470156E+00  1.105400144155E+00  1.112042493621E+00
  1.118724756965E+00  1.125447174030E+00  1.132209986098E+00  1.139013435905E+00
  1.145857767641E+00  1.152743226967E+00  1.159670061018E+00  1.166638518414E+00
  1.173648849272E+00  1.180701305207E+00  1.187796139350E+00  1.194933606351E+00
  1.202113962392E+00  1.209337465192E+00  1.216604374020E+00  1.223914949704E+00
  1.231269454636E+00  1.238668152789E+00  1.246111309719E+00  1.253599192579E+00
  1.261132070128E+00  1.268710212737E+00  1.276333892405E+00  1.284003382765E+00
  1.291718959092E+00  1.299480898317E+00  1.307289479035E+00  1.315144981515E+00
  1.323047687708E+00  1.330997881264E+00  1.338995847532E+00  1.347041873580E+00
  1.355136248199E+00  1.363279261914E+00  1.371471206999E+00  1.379712377482E+00
  1.388003069158E+00  1.396343579601E+00  1.404734208170E+00  1.413175256027E+00
  1.421667026141E+00  1.430209823301E+00  1.438803954129E+00  1.447449727089E+00
  1.456147452499E+00  1.464897442542E+00  1.473700011274E+00  1.482555474642E+00
  1.491464150489E+00  1.500426358569E+00  1.509442420558E+00  1.518512660063E+00
  1.527637402637E+00  1.536816975789E+00  1.546051708997E+00  1.555341933716E+00
  1.564687983396E+00  1.574090193488E+00  1.583548901461E+00  1.593064446810E+00
  1.602637171071E+00  1.612267417832E+00  1.621955532745E+00  1.631701863542E+00
  1.641506760040E+00  1.651370574161E+00  1.661293659941E+00  1.671276373544E+00
  1.676290202664E+00  1.681319073272E+00  1.686363030492E+00  1.691422119583E+00
  1.696496385942E+00  1.701585875100E+00  1.706690632725E+00  1.711810704623E+00
  1.716946136737E+00  1.722096975148E+00  1.727263266073E+00  1.732445055871E+00
  1.737642391039E+00  1.742855318212E+00  1.748083884167E+00  1.753328135819E+00
  1.758588120227E+00  1.763863884587E+00  1.769155476241E+00  1.774462942670E+00
  1.779786331498E+00  1.785125690492E+00  1.790481067564E+00  1.795852510766E+00
  1.801240068299E+00  1.806643788504E+00  1.812063719869E+00  1.817499911029E+00
  1.822952410762E+00  1.828421267994E+00  1.833906531798E+00  1.839408251393E+00
  1.844926476148E+00  1.850461255576E+00  1.856012639343E+00  1.861580677261E+00
  1.867165419293E+00  1.872766915550E+00  1.878385216297E+00  1.884020371946E+00
  1.889672433062E+00  1.895341450361E+00  1.901027474712E+00  1.906730557136E+00
  1.912450748808E+00  1.918188101054E+00  1.923942665357E+00  1.929714493353E+00
  1.935503636833E+00  1.941310147744E+00  1.947134078187E+00  1.952975480422E+00
  1.958834406863E+00  1.964710910084E+00  1.970605042814E+00  1.976516857942E+00
  1.982446408516E+00  1.988393747742E+00  1.994358928985E+00  2.000342005772E+00
  2.006343031789E+00  2.012362060884E+00  2.018399147067E+00  2.024454344508E+00
  2.030527707542E+00  2.036619290664E+00  2.042729148536E+00  2.048857335982E+00
  2.055003907990E+00  2.061168919714E+00  2.067352426473E+00  2.073554483753E+00
  2.079775147204E+00  2.086014472645E+00  2.092272516063E+00  2.098549333612E+00
  2.104844981612E+00  2.111159516557E+00  2.117492995107E+00  2.123845474092E+00
  2.130217010514E+00  2.136607661546E+00  2.143017484531E+00  2.149446536984E+00
  2.155894876595E+00  2.162362561225E+00  2.168849648909E+00  2.175356197855E+00
  2.181882266449E+00  2.188427913248E+00  2.194993196988E+00  2.201578176579E+00
  2.208182911109E+00  2.214807459842E+00  2.221451882222E+00  2.228116237868E+00
  2.234800586582E+00  2.241504988342E+00  2.248229503307E+00  2.254974191817E+00
  2.261739114392E+00  2.268524331735E+00  2.275329904730E+00  2.282155894445E+00
  2.289002362128E+00  2.295869369214E+00  2.302756977322E+00  2.309665248254E+00
  2.316594243999E+00  2.323544026731E+00  2.330514658811E+00  2.337506202787E+00
  2.344518721396E+00  2.351552277560E+00  2.358606934392E+00  2.365682755196E+00
  2.372779803461E+00  2.379898142872E+00  2.387037837300E+00  2.394198950812E+00
  2.401381547665E+00  2.408585692308E+00  2.415811449385E+00  2.423058883733E+00
  2.430328060384E+00  2.437619044565E+00  2.444931901699E+00  2.452266697404E+00
  2.459623497496E+00  2.467002367989E+00  2.474403375092E+00  2.481826585218E+00
  2.489272064973E+00  2.496739881168E+00  2.504230100812E+00  2.511742791114E+00
  2.519278019488E+00  2.526835853546E+00  2.534416361107E+00  2.542019610190E+00
  2.549645669021E+00  2.557294606028E+00  2.564966489846E+00  2.572661389315E+00
  2.580379373483E+00  2.588120511604E+00  2.595884873138E+00  2.603672527758E+00
  2.611483545341E+00  2.619317995977E+00  2.627175949965E+00  2.635057477815E+00
  2.642962650248E+00  2.650891538199E+00  2.658844212814E+00  2.666820745452E+00
  2.674821207689E+00  2.682845671312E+00  2.690894208326E+00  2.698966890951E+00
  2.707063791623E+00  2.715184982998E+00  2.723330537947E+00  2.731500529561E+00
  2.739695031150E+00  2.747914116243E+00  2.756157858592E+00  2.764426332168E+00
  2.772719611164E+00  2.781037769998E+00  2.789380883308E+00  2.797749025958E+00
  2.806142273036E+00  2.814560699855E+00  2.823004381954E+00  2.831473395100E+00
  2.839967815285E+00  2.848487718731E+00  2.857033181887E+00  2.865604281433E+00
  2.874201094277E+00  2.882823697560E+00  2.891472168653E+00  2.900146585159E+00
  2.908847024914E+00  2.917573565989E+00  2.926326286687E+00  2.935105265547E+00
  2.943910581344E+00  2.952742313088E+00  2.961600540027E+00  2.970485341647E+00
  2.979396797672E+00  2.988334988065E+00  2.997299993029E+00  3.006291893008E+00
  3.015310768687E+00  3.024356700993E+00  3.033429771096E+00  3.042530060410E+00
  3.051657650591E+00  3.060812623543E+00  3.069995061413E+00  3.079205046598E+00
  3.088442661737E+00  3.097707989723E+00  3.107001113692E+00  3.116322117033E+00
  3.125671083384E+00  3.135048096634E+00  3.144453240924E+00  3.153886600647E+00
  3.163348260449E+00  3.172838305230E+00  3.182356820146E+00  3.191903890606E+00
  3.201479602278E+00  3.211084041085E+00  3.220717293208E+00  3.230379445088E+00
  3.240070583423E+00  3.249790795173E+00  3.259540167559E+00  3.269318788061E+00
  3.279126744426E+00  3.288964124659E+00  3.298831017033E+00  3.308727510084E+00
  3.318653692614E+00  3.328609653692E+00  3.338595482653E+00  3.348611269101E+00
  3.358657102908E+00  3.368733074217E+00  3.378839273440E+00  3.388975791260E+00
  3.399142718634E+00  3.409340146790E+00  3.419568167230E+00  3.429826871732E+00
  3.440116352347E+00  3.450436701404E+00  3.460788011508E+00  3.471170375543E+00
  3.481583886669E+00  3.492028638329E+00  3.502504724244E+00  3.513012238417E+00
  3.523551275132E+00  3.534121928958E+00  3.544724294745E+00  3.555358467629E+00
  3.566024543032E+00  3.576722616661E+00  3.587452784511E+00  3.598215142864E+00
  3.609009788293E+00  3.619836817658E+00  3.630696328111E+00  3.641588417095E+00
  3.652513182346E+00  3.663470721894E+00  3.674461134059E+00  3.685484517461E+00
  3.696540971014E+00  3.707630593927E+00  3.718753485709E+00  3.729909746166E+00
  3.741099475404E+00  3.752322773830E+00  3.763579742152E+00  3.774870481378E+00
  3.786195092822E+00  3.797553678101E+00  3.808946339135E+00  3.820373178153E+00
  3.831834297687E+00  3.843329800580E+00  3.854859789982E+00  3.866424369352E+00
  3.878023642460E+00  3.889657713387E+00  3.901326686527E+00  3.913030666587E+00
  3.924769758587E+00  3.936544067863E+00  3.948353700066E+00  3.960198761166E+00
  3.972079357450E+00  3.983995595522E+00  3.995947582309E+00  4.007935425056E+00
  4.019959231331E+00  4.032019109025E+00  4.044115166352E+00  4.056247511851E+00
  4.068416254387E+00  4.080621503150E+00  4.092863367659E+00  4.105141957762E+00
  4.117457383635E+00  4.129809755786E+00  4.142199185054E+00  4.154625782609E+00
  4.167089659957E+00  4.179590928937E+00  4.192129701723E+00  4.204706090829E+00
  4.217320209101E+00  4.229972169728E+00  4.242662086237E+00  4.255390072496E+00
  4.268156242714E+00  4.280960711442E+00  4.293803593576E+00  4.306685004357E+00
  4.319605059370E+00  4.332563874548E+00  4.345561566172E+00  4.358598250870E+00
  4.371674045623E+00  4.384789067760E+00  4.397943434963E+00  4.411137265268E+00
  4.424370677064E+00  4.437643789095E+00  4.450956720462E+00  4.464309590624E+00
  4.477702519395E+00  4.491135626954E+00  4.504609033834E+00  4.518122860936E+00
  4.531677229519E+00  4.545272261207E+00  4.558908077991E+00  4.572584802225E+00
  4.586302556632E+00  4.600061464301E+00  4.613861648694E+00  4.627703233640E+00
  4.641586343341E+00  4.655511102371E+00  4.669477635679E+00  4.683486068586E+00
  4.697536526791E+00  4.711629136372E+00  4.725764023781E+00  4.739941315852E+00
  4.754161139800E+00  4.768423623219E+00  4.782728894089E+00  4.797077080771E+00
  4.811468312013E+00  4.825902716949E+00  4.840380425100E+00  4.854901566376E+00
  4.869466271075E+00  4.884074669888E+00  4.898726893898E+00  4.913423074579E+00
  4.928163343803E+00  4.942947833834E+00  4.957776677336E+00  4.972650007368E+00
  4.987567957390E+00  5.002530661262E+00  5.017538253246E+00  5.032590868006E+00
  5.047688640610E+00  5.062831706532E+00  5.078020201651E+00  5.093254262256E+00
  5.108534025043E+00  5.123859627118E+00  5.139231205999E+00  5.154648899617E+00
  5.170112846316E+00  5.185623184855E+00  5.201180054410E+00  5.216783594573E+00
  5.232433945357E+00  5.248131247193E+00  5.263875640934E+00  5.279667267857E+00
  5.295506269661E+00  5.311392788470E+00  5.327326966835E+00  5.343308947736E+00
  5.359338874579E+00  5.375416891202E+00  5.391543141876E+00  5.407717771302E+00
  5.423940924616E+00  5.440212747389E+00  5.456533385632E+00  5.472902985789E+00
  5.489321694746E+00  5.505789659830E+00  5.522307028810E+00  5.538873949896E+00
  5.555490571746E+00  5.572157043461E+00  5.588873514591E+00  5.605640135135E+00
  5.622457055541E+00  5.639324426707E+00  5.656242399987E+00  5.673211127187E+00
  5.690230760569E+00  5.707301452850E+00  5.724423357209E+00  5.741596627281E+00
  5.758821417163E+00  5.776097881414E+00  5.793426175058E+00  5.810806453583E+00
  5.828238872944E+00  5.845723589563E+00  5.863260760332E+00  5.880850542613E+00
  5.898493094241E+00  5.916188573523E+00  5.933937139244E+00  5.951738950662E+00
  5.969594167514E+00  5.987502950016E+00  6.005465458866E+00  6.023481855243E+00
  6.041552300808E+00  6.059676957711E+00  6.077855988584E+00  6.096089556550E+00
  6.114377825219E+00  6.132720958695E+00  6.151119121571E+00  6.169572478936E+00
  6.188081196373E+00  6.206645439962E+00  6.225265376282E+00  6.243941172411E+00
  6.262672995928E+00  6.281461014916E+00  6.300305397960E+00  6.319206314154E+00
  6.338163933097E+00  6.357178424896E+00  6.376249960171E+00  6.395378710051E+00
  6.414564846181E+00  6.433808540720E+00  6.453109966342E+00  6.472469296241E+00
  6.491886704130E+00  6.511362364242E+00  6.530896451335E+00  6.550489140689E+00
  6.570140608111E+00  6.589851029935E+00  6.609620583025E+00  6.629449444774E+00
  6.649337793108E+00  6.669285806488E+00  6.689293663907E+00  6.709361544899E+00
  6.729489629534E+00  6.749678098422E+00  6.769927132717E+00  6.790236914116E+00
  6.810607624858E+00  6.831039447733E+00  6.851532566076E+00  6.872087163774E+00
  6.892703425265E+00  6.913381535541E+00  6.934121680148E+00  6.954924045188E+00
  6.975788817324E+00  6.996716183776E+00  7.017706332327E+00  7.038759451324E+00
  7.059875729678E+00  7.081055356867E+00  7.102298522938E+00  7.123605418506E+00
  7.144976234762E+00  7.166411163466E+00  7.187910396957E+00  7.209474128147E+00
  7.231102550532E+00  7.252795858184E+00  7.274554245758E+00  7.296377908495E+00
  7.318267042221E+00  7.340221843347E+00  7.362242508878E+00  7.384329236404E+00
  7.406482224113E+00  7.428701670786E+00  7.450987775798E+00  7.473340739125E+00
  7.495760761343E+00  7.518248043627E+00  7.540802787758E+00  7.563425196121E+00
  7.586115471709E+00  7.608873818124E+00  7.631700439579E+00  7.654595540898E+00
  7.677559327520E+00  7.700592005503E+00  7.723693781519E+00  7.746864862864E+00
  7.770105457453E+00  7.793415773825E+00  7.816796021146E+00  7.840246409210E+00
  7.863767148437E+00  7.887358449883E+00  7.911020525232E+00  7.934753586808E+00
  7.958557847569E+00  7.982433521111E+00  8.006380821675E+00  8.030399964140E+00
  8.054491164032E+00  8.078654637524E+00  8.102890601437E+00  8.127199273241E+00
  8.151580871061E+00  8.176035613674E+00  8.200563720515E+00  8.225165411676E+00
  8.249840907911E+00  8.274590430635E+00  8.299414201927E+00  8.324312444533E+00
  8.349285381866E+00  8.374333238012E+00  8.399456237726E+00  8.424654606439E+00
  8.449928570259E+00  8.475278355969E+00  8.500704191037E+00  8.526206303610E+00
  8.551784922521E+00  8.577440277289E+00  8.603172598121E+00  8.628982115915E+00
  8.654869062263E+00  8.680833669450E+00  8.706876170458E+00  8.732996798969E+00
  8.759195789366E+00  8.785473376734E+00  8.811829796864E+00  8.838265286255E+00
  8.864780082114E+00  8.891374422360E+00  8.918048545627E+00  8.944802691264E+00
  8.971637099338E+00  8.998552010636E+00  9.025547666668E+00  9.052624309668E+00
  9.079782182597E+00  9.107021529145E+00  9.134342593732E+00  9.161745621513E+00
  9.189230858378E+00  9.216798550953E+00  9.244448946606E+00  9.272182293446E+00
  9.299998840326E+00  9.327898836847E+00  9.355882533357E+00  9.383950180958E+00
  9.412102031500E+00  9.440338337595E+00  9.468659352608E+00  9.497065330665E+00
  9.525556526657E+00  9.554133196237E+00  9.582795595826E+00  9.611543982614E+00
  9.640378614561E+00  9.669299750405E+00  9.698307649656E+00  9.727402572605E+00
  9.756584780323E+00  9.785854534664E+00  9.815212098268E+00  9.844657734563E+00
  9.874191707767E+00  9.903814282890E+00  9.933525725739E+00  9.963326302916E+00
  9.993216281825E+00  1.002319593067E+01  1.005326551846E+01  1.008342531502E+01
  1.011367559096E+01  1.014401661774E+01  1.017444866759E+01  1.020497201359E+01
  1.023558692963E+01  1.026629369042E+01  1.029709257149E+01  1.032798384921E+01
  1.035896780075E+01  1.039004470416E+01  1.042121483827E+01  1.045247848278E+01
  1.048383591823E+01  1.051528742599E+01  1.054683328826E+01  1.057847378813E+01
  1.061020920949E+01  1.064203983712E+01  1.067396595663E+01  1.070598785450E+01
  1.073810581807E+01  1.077032013552E+01  1.080263109593E+01  1.083503898922E+01
  1.086754410618E+01  1.090014673850E+01  1.093284717872E+01  1.096564572025E+01
  1.099854265741E+01  1.103153828539E+01  1.106463290024E+01  1.109782679894E+01
  1.113112027934E+01  1.116451364018E+01  1.119800718110E+01  1.123160120264E+01
  1.126529600625E+01  1.129909189427E+01  1.133298916995E+01  1.136698813746E+01
  1.140108910187E+01  1.143529236918E+01  1.146959824629E+01  1.150400704103E+01
  1.153851906215E+01  1.157313461934E+01  1.160785402319E+01  1.164267758526E+01
  1.167760561802E+01  1.171263843487E+01  1.174777635018E+01  1.178301967923E+01
  1.181836873827E+01  1.185382384448E+01  1.188938531601E+01  1.192505347196E+01
  1.196082863238E+01  1.199671111828E+01  1.203270125163E+01  1.206879935538E+01
  1.210500575345E+01  1.214132077071E+01  1.217774473302E+01  1.221427796722E+01
  1.225092080112E+01  1.228767356353E+01  1.232453658422E+01  1.236151019397E+01
  1.239859472455E+01  1.243579050873E+01  1.247309788025E+01  1.251051717389E+01
  1.254804872541E+01  1.258569287159E+01  1.262344995021E+01  1.266132030006E+01
  1.269930426096E+01  1.273740217374E+01  1.277561438026E+01  1.281394122340E+01
  1.285238304707E+01  1.289094019621E+01  1.292961301680E+01  1.296840185585E+01
  1.300730706142E+01  1.304632898260E+01  1.308546796955E+01  1.312472437346E+01
  1.316409854658E+01  1.320359084222E+01  1.324320161475E+01  1.328293121959E+01
  1.332278001325E+01  1.336274835329E+01  1.340283659835E+01  1.344304510814E+01
  1.348337424347E+01  1.352382436620E+01  1.356439583930E+01  1.360508902682E+01
  1.364590429390E+01  1.368684200678E+01  1.372790253280E+01  1.376908624040E+01
  1.381039349912E+01  1.385182467962E+01  1.389338015365E+01  1.393506029412E+01
  1.397686547500E+01  1.401879607142E+01  1.406085245964E+01  1.410303501702E+01
  1.414534412207E+01  1.418778015443E+01  1.423034349490E+01  1.427303452538E+01
  1.431585362896E+01  1.435880118984E+01  1.440187759341E+01  1.444508322619E+01
  1.448841847587E+01  1.453188373130E+01  1.457547938249E+01  1.461920582064E+01
  1.466306343810E+01  1.470705262842E+01  1.475117378630E+01  1.479542730766E+01
  1.483981358958E+01  1.488433303035E+01  1.492898602944E+01  1.497377298753E+01
  1.501869430650E+01  1.506375038942E+01  1.510894164058E+01  1.515426846551E+01
  1.519973127090E+01  1.524533046471E+01  1.529106645611E+01  1.533693965548E+01
  1.538295047444E+01  1.542909932587E+01  1.547538662384E+01  1.552181278372E+01
  1.556837822207E+01  1.561508335673E+01  1.566192860680E+01  1.570891439262E+01
  1.575604113580E+01  1.580330925921E+01  1.585071918699E+01  1.589827134455E+01
  1.594596615858E+01  1.599380405706E+01  1.604178546923E+01  1.608991082564E+01
  1.613818055811E+01  1.618659509979E+01  1.623515488509E+01  1.628386034974E+01
  1.633271193079E+01  1.638171006658E+01  1.643085519678E+01  1.648014776237E+01
  1.652958820566E+01  1.657917697028E+01  1.662891450119E+01  1.667880124469E+01
  1.672883764843E+01  1.677902416137E+01  1.682936123386E+01  1.687984931756E+01
  1.693048886551E+01  1.698128033211E+01  1.703222417310E+01  1.708332084562E+01
  1.713457080816E+01  1.718597452058E+01  1.723753244414E+01  1.728924504148E+01
  1.734111277660E+01  1.739313611493E+01  1.744531552328E+01  1.749765146985E+01
  1.755014442426E+01  1.760279485753E+01  1.765560324210E+01  1.770857005183E+01
  1.776169576198E+01  1.781498084927E+01  1.786842579182E+01  1.792203106919E+01
  1.797579716240E+01  1.802972455389E+01  1.808381372755E+01  1.813806516873E+01
  1.819247936424E+01  1.824705680233E+01  1.830179797274E+01  1.835670336665E+01
  1.841177347675E+01  1.846700879719E+01  1.852240982358E+01  1.857797705305E+01
  1.863371098421E+01  1.868961211716E+01  1.874568095351E+01  1.880191799637E+01
  1.885832375036E+01  1.891489872161E+01  1.897164341778E+01  1.902855834803E+01
  1.908564402307E+01  1.914290095514E+01  1.920032965801E+01  1.925793064698E+01
  1.931570443892E+01  1.937365155224E+01  1.943177250690E+01  1.949006782442E+01
  1.954853802789E+01  1.960718364197E+01  1.966600519290E+01  1.972500320848E+01
  1.978417821810E+01  1.984353075276E+01  1.990306134502E+01  1.996277052905E+01
  2.002265884064E+01  2.008272681716E+01  2.014297499761E+01  2.020340392261E+01
  2.026401413437E+01  2.032480617678E+01  2.038578059531E+01  2.044693793709E+01
  2.050827875090E+01  2.056980358716E+01  2.063151299792E+01  2.069340753691E+01
  2.075548775952E+01  2.081775422280E+01  2.088020748547E+01  2.094284810793E+01
  2.100567665225E+01  2.106869368221E+01  2.113189976325E+01  2.119529546254E+01
  2.125888134893E+01  2.132265799298E+01  2.138662596696E+01  2.145078584486E+01
  2.151513820239E+01  2.157968361700E+01  2.164442266785E+01  2.170935593585E+01
  2.177448400366E+01  2.183980745567E+01  2.190532687804E+01  2.197104285867E+01
  2.203695598725E+01  2.210306685521E+01  2.216937605578E+01  2.223588418394E+01
  2.230259183650E+01  2.236949961201E+01  2.243660811084E+01  2.250391793517E+01
  2.257142968898E+01  2.263914397805E+01  2.270706140998E+01  2.277518259421E+01
  2.284350814199E+01  2.291203866642E+01  2.298077478242E+01  2.304971710677E+01
  2.311886625809E+01  2.318822285686E+01  2.325778752543E+01  2.332756088801E+01
  2.339754357067E+01  2.346773620138E+01  2.353813940999E+01  2.360875382822E+01
  2.367958008970E+01  2.375061882997E+01  2.382187068646E+01  2.389333629852E+01
  2.396501630742E+01  2.403691135634E+01  2.410902209041E+01  2.418134915668E+01
  2.425389320415E+01  2.432665488376E+01  2.439963484841E+01  2.447283375296E+01
  2.454625225422E+01  2.461989101098E+01  2.469375068401E+01  2.476783193606E+01
  2.484213543187E+01  2.491666183817E+01  2.499141182368E+01  2.506638605915E+01
  2.514158521733E+01  2.521700997298E+01  2.529266100290E+01  2.536853898591E+01
  2.544464460287E+01  2.552097853668E+01  2.559754147229E+01  2.567433409670E+01
  2.575135709899E+01  2.582861117029E+01  2.590609700380E+01  2.598381529481E+01
  2.606176674070E+01  2.613995204092E+01  2.621837189704E+01  2.629702701273E+01
  2.637591809377E+01  2.645504584805E+01  2.653441098560E+01  2.661401421855E+01
  2.669385626121E+01  2.677393782999E+01  2.685425964348E+01  2.693482242241E+01
  2.701562688968E+01  2.709667377035E+01  2.717796379166E+01  2.725949768304E+01
  2.734127617608E+01  2.742330000461E+01  2.750556990463E+01  2.758808661434E+01
  2.767085087418E+01  2.775386342681E+01  2.783712501709E+01  2.792063639214E+01
  2.800439830131E+01  2.808841149622E+01  2.817267673071E+01  2.825719476090E+01
  2.834196634518E+01  2.842699224422E+01  2.851227322095E+01  2.859781004061E+01
  2.868360347073E+01  2.876965428115E+01  2.885596324399E+01  2.894253113372E+01
  2.902935872712E+01  2.911644680330E+01  2.920379614371E+01  2.929140753215E+01
  2.937928175474E+01  2.946741960001E+01  2.955582185881E+01  2.964448932438E+01
  2.973342279236E+01  2.982262306073E+01  2.991209092991E+01  3.000182720270E+01
  3.009183268431E+01  3.018210818237E+01  3.027265450691E+01  3.036347247043E+01
  3.045456288784E+01  3.054592657651E+01  3.063756435624E+01  3.072947704931E+01
  3.082166548045E+01  3.091413047690E+01  3.100687286833E+01  3.109989348693E+01
  3.119319316739E+01  3.128677274689E+01  3.138063306513E+01  3.147477496433E+01
  3.156919928922E+01  3.166390688709E+01  3.175889860775E+01  3.185417530358E+01
  3.194973782949E+01  3.204558704297E+01  3.214172380410E+01  3.223814897552E+01
  3.233486342244E+01  3.243186801271E+01  3.252916361675E+01  3.262675110760E+01
  3.272463136092E+01  3.282280525500E+01  3.292127367077E+01  3.302003749178E+01
  3.311909760426E+01  3.321845489707E+01  3.331811026176E+01  3.341806459255E+01
  3.351831878632E+01  3.361887374268E+01  3.371973036391E+01  3.382088955500E+01
  3.392235222367E+01  3.402411928034E+01  3.412619163818E+01  3.422857021309E+01
  3.433125592373E+01  3.443424969150E+01  3.453755244058E+01  3.464116509790E+01
  3.474508859319E+01  3.484932385897E+01  3.495387183055E+01  3.505873344604E+01
  3.516390964638E+01  3.526940137532E+01  3.537520957945E+01  3.548133520818E+01
  3.558777921381E+01  3.569454255145E+01  3.580162617910E+01  3.590903105764E+01
  3.601675815081E+01  3.612480842527E+01  3.623318285054E+01  3.634188239909E+01
  3.645090804629E+01  3.656026077043E+01  3.666994155274E+01  3.677995137740E+01
  3.689029123153E+01  3.700096210523E+01  3.711196499154E+01  3.722330088652E+01
  3.733497078918E+01  3.744697570154E+01  3.755931662865E+01  3.767199457853E+01
  3.778501056227E+01  3.789836559396E+01  3.801206069074E+01  3.812609687281E+01
  3.824047516343E+01  3.835519658892E+01  3.847026217869E+01  3.858567296522E+01
  3.870142998412E+01  3.881753427407E+01  3.893398687689E+01  3.905078883752E+01
  3.916794120404E+01  3.928544502765E+01  3.940330136273E+01  3.952151126682E+01
  3.964007580062E+01  3.975899602802E+01  3.987827301611E+01  3.999790783515E+01
  4.011790155866E+01  4.023825526334E+01  4.035897002913E+01  4.048004693921E+01
  4.060148708003E+01  4.072329154127E+01  4.084546141589E+01  4.096799780014E+01
  4.109090179354E+01  4.121417449892E+01  4.133781702242E+01  4.146183047349E+01
  4.158621596491E+01  4.171097461280E+01  4.183610753664E+01  4.196161585925E+01