<?xml version="1.0" encoding="UTF-8" ?>
<psml version="1.1" energy_unit="hartree" length_unit="bohr"
 uuid="2abda550-7302-11e7-4c06-1210d5f72d89"
 xmlns="http://esl.cecam.org/PSML/ns/1.1">
<provenance creator="ONCVPSP-3.3.0+psml-3.3.0-73 (fully-relativistic)"
 date="2017-07-27">
<annotation action="semilocal-pseudopotential-generation"
 action-cont="projectors-generation" />
<input-file name="oncvpsp-input">
<![CDATA[# ATOM AND REFERENCE CONFIGURATION
# atsym, z, nc, nv, iexc   psfile
    Te  52.0   8   3   3   upf
#
# n, l, f  (nc+nv lines)
    1    0    2.0
    2    0    2.0
    2    1    6.0
    3    0    2.0
    3    1    6.0
    3    2   10.0
    4    0    2.0
    4    1    6.0
    4    2   10.0
    5    0    2.0
    5    1    4.0
#
# PSEUDOPOTENTIAL AND OPTIMIZATION
# lmax
    3
#
# l, rc, ep, ncon, nbas, qcut  (lmax+1 lines, l's must be in order)
    0    3.00    0.00    4    8    4.00
    1    3.10    0.00    4    8    4.00
    2    2.50    0.00    4    8    7.00
    3    2.50    0.25    4    9    7.50
#
# LOCAL POTENTIAL
# lloc, lpopt, rc(5), dvloc0
    4    5    2.5    0.0
#
# VANDERBILT-KLEINMAN-BYLANDER PROJECTORs
# l, nproj, debl  (lmax+1 lines, l's in order)
    0    2    1.0
    1    2    1.0
    2    2    1.7
    3    2    1.5
#
# MODEL CORE CHARGE
# icmod, fcfact
    0    0.0
#
# LOG DERIVATIVE ANALYSIS
# epsh1, epsh2, depsh
   -3.0  3.0  0.02
#
# OUTPUT GRID
# rlmax, drl
    6.0  0.01
#
# TEST CONFIGURATIONS
# ncnf
    3
#
#   nvcnf (repeated ncnf times)
#   n, l, f  (nvcnf lines, repeated follwing nvcnf's ncnf times)
    3
    4    2   10.0
    5    0    2.0
    5    1    3.0
#
    3
    4    2   10.0
    5    0    1.0
    5    1    4.0
#
    3
    4    2   10.0
    5    0    1.0
    5    1    3.0
]]>
</input-file>
</provenance>
<pseudo-atom-spec atomic-label="Te" atomic-number="52" z-pseudo="16"
 flavor="Hamann&apos;s oncvpsp" relativity="dirac" spin-dft="no"
 core-corrections="no">
<annotation pseudo-energy="-87.7203766903" />
<exchange-correlation>
<annotation oncvpsp-xc-code="3"
 oncvpsp-xc-type="LDA -- Ceperley-Alder Perdew-Zunger" />
<libxc-info number-of-functionals="2">
<functional name="Slater exchange (LDA)" type="exchange" id="1" />
<functional name="Perdew &amp; Zunger (LDA)" type="correlation" id="9" />
</libxc-info>
</exchange-correlation>
<valence-configuration total-valence-charge="16">
<shell n="4" l="d" occupation="10" />
<shell n="5" l="s" occupation="2" />
<shell n="5" l="p" occupation="4" />
</valence-configuration>
</pseudo-atom-spec>
<grid npts="457">
<annotation type="sampled from oncvpsp log grid"
 recipe="r(i:1..N) = r1*exp(a*(i-1)) + r=0; resampled"
 recipe-cont="r1: scale; a: step" scale="0.961538461538E-05"
 step="0.119285708653E-01" delta="0.500000000000E-02" rmax="44.1677972533" />
<grid-data>
  0.000000000000E+00  5.043542968859E-03  1.007408127726E-02  1.511272833334E-02
  2.012218676581E-02  2.524090447309E-02  3.054872670761E-02  3.567301166182E-02
  4.067479879938E-02  4.582796137488E-02  5.102172656014E-02  5.613054395614E-02
  6.175090843111E-02  6.712849932167E-02  7.297439884964E-02  7.838872507068E-02
  8.420476653556E-02  8.937977120117E-02  9.487281811536E-02  1.007034533227E-01
  1.068924241165E-01  1.121163565855E-01  1.175955875068E-01  1.233425935539E-01
  1.293704611469E-01  1.356929162517E-01  1.423243556345E-01  1.475097624955E-01
  1.528840930596E-01  1.584542305217E-01  1.642273088569E-01  1.702107219580E-01
  1.764121331045E-01  1.828394847779E-01  1.895010088340E-01  1.964052370456E-01
  2.035610120299E-01  2.109774985736E-01  2.160713392991E-01  2.212881657152E-01
  2.266309471882E-01  2.321027247771E-01  2.377066129641E-01  2.434458014276E-01
  2.493235568572E-01  2.553432248140E-01  2.615082316339E-01  2.678220863785E-01
  2.742883828320E-01  2.809108015471E-01  2.876931119396E-01  2.946391744343E-01
  3.017529426618E-01  3.090384657095E-01  3.164998904256E-01  3.241414637800E-01
  3.319675352815E-01  3.399825594533E-01  3.481910983688E-01  3.565978242478E-01
  3.652075221164E-01  3.740250925304E-01  3.830555543645E-01  3.923040476690E-01
  4.017758365960E-01  4.114763123947E-01  4.214109964812E-01  4.264679284390E-01
  4.315855435802E-01  4.367645701032E-01  4.420057449444E-01  4.473098138838E-01
  4.526775316504E-01  4.581096620302E-01  4.636069779745E-01  4.691702617102E-01
  4.748003048508E-01  4.804979085090E-01  4.862638834111E-01  4.920990500120E-01
  4.980042386121E-01  5.039802894755E-01  5.100280529492E-01  5.161483895846E-01
  5.223421702596E-01  5.286102763027E-01  5.349535996183E-01  5.413730428138E-01
  5.478695193275E-01  5.544439535595E-01  5.610972810022E-01  5.678304483742E-01
  5.746444137547E-01  5.815401467198E-01  5.885186284804E-01  5.955808520222E-01
  6.027278222464E-01  6.099605561134E-01  6.172800827867E-01  6.246874437802E-01
  6.321836931055E-01  6.397698974228E-01  6.474471361919E-01  6.552165018262E-01
  6.630790998481E-01  6.710360490463E-01  6.790884816348E-01  6.872375434144E-01
  6.954843939354E-01  7.038302066626E-01  7.122761691426E-01  7.208234831723E-01
  7.294733649704E-01  7.382270453500E-01  7.470857698942E-01  7.560507991330E-01
  7.651234087225E-01  7.743048896272E-01  7.835965483027E-01  7.929997068824E-01
  8.025157033650E-01  8.121458918053E-01  8.218916425070E-01  8.317543422171E-01
  8.417353943237E-01  8.518362190556E-01  8.620582536842E-01  8.724029527285E-01
  8.828717881612E-01  8.934662496191E-01  9.041878446146E-01  9.150380987499E-01
  9.260185559349E-01  9.371307786062E-01  9.483763479494E-01  9.597568641248E-01
  9.712739464943E-01  9.829292338523E-01  9.947243846585E-01  1.006661077274E+00
  1.018741010202E+00  1.030965902324E+00  1.043337493152E+00  1.055857543070E+00
  1.068527833587E+00  1.081350167590E+00  1.094326369601E+00  1.107458286036E+00
  1.120747785468E+00  1.134196758894E+00  1.147807120001E+00  1.161580805441E+00
  1.175519775106E+00  1.189626012407E+00  1.203901524556E+00  1.218348342851E+00
  1.232968522965E+00  1.247764145241E+00  1.262737314984E+00  1.277890162763E+00
  1.293224844717E+00  1.308743542853E+00  1.324448465367E+00  1.340341846952E+00
  1.356425949115E+00  1.372703060505E+00  1.389175497231E+00  1.405845603197E+00
  1.422715750436E+00  1.439788339441E+00  1.457065799514E+00  1.474550589108E+00
  1.492245196178E+00  1.510152138532E+00  1.528273964194E+00  1.546613251765E+00
  1.565172610786E+00  1.583954682115E+00  1.602962138301E+00  1.622197683960E+00
  1.641664056168E+00  1.661364024842E+00  1.681300393140E+00  1.701475997858E+00
  1.721893709832E+00  1.742556434350E+00  1.763467111562E+00  1.784628716901E+00
  1.806044261504E+00  1.827716792642E+00  1.849649394153E+00  1.871845186883E+00
  1.894307329126E+00  1.917039017075E+00  1.940043485280E+00  1.963324007103E+00
  1.986883895189E+00  2.010726501931E+00  2.034855219954E+00  2.059273482594E+00
  2.083984764385E+00  2.108992581557E+00  2.134300492536E+00  2.159912098446E+00
  2.185831043628E+00  2.212061016151E+00  2.238605748345E+00  2.265469017325E+00
  2.292654645533E+00  2.320166501280E+00  2.348008499295E+00  2.376184601287E+00
  2.404698816502E+00  2.433555202300E+00  2.462757864728E+00  2.492310959104E+00
  2.522218690614E+00  2.552485314901E+00  2.583115138680E+00  2.614112520344E+00
  2.645481870588E+00  2.677227653035E+00  2.709354384872E+00  2.741866637490E+00
  2.774769037140E+00  2.808066265586E+00  2.841763060773E+00  2.875864217502E+00
  2.910374588112E+00  2.945299083169E+00  2.980642672167E+00  3.016410384233E+00
  3.052607308844E+00  3.089238596550E+00  3.126309459709E+00  3.163825173225E+00
  3.201791075304E+00  3.240212568208E+00  3.279095119026E+00  3.318444260454E+00
  3.358265591580E+00  3.398564778679E+00  3.439347556023E+00  3.480619726695E+00
  3.522387163416E+00  3.564655809377E+00  3.607431679089E+00  3.650720859238E+00
  3.694529509549E+00  3.738863863664E+00  3.783730230028E+00  3.829134992788E+00
  3.875084612701E+00  3.921585628054E+00  3.968644655590E+00  4.016268391458E+00
  4.064463612155E+00  4.113237175501E+00  4.162596021607E+00  4.212547173866E+00
  4.263097739953E+00  4.314254912832E+00  4.366025971786E+00  4.418418283447E+00
  4.471439302849E+00  4.525096574483E+00  4.579397733377E+00  4.634350506177E+00
  4.689962712251E+00  4.746242264798E+00  4.803197171976E+00  4.860835538040E+00
  4.919165564496E+00  4.978195551270E+00  5.037933897885E+00  5.098389104660E+00
  5.159569773916E+00  5.221484611203E+00  5.284142426537E+00  5.347552135656E+00
  5.411722761284E+00  5.476663434419E+00  5.542383395632E+00  5.608891996380E+00
  5.676198700336E+00  5.744313084740E+00  5.813244841757E+00  5.883003779858E+00
  5.953599825217E+00  6.025043023119E+00  6.097343539397E+00  6.170511661869E+00
  6.244557801812E+00  6.319492495433E+00  6.395326405379E+00  6.472070322243E+00
  6.549735166110E+00  6.628331988103E+00  6.707871971961E+00  6.788366435624E+00
  6.869826832852E+00  6.952264754846E+00  7.035691931904E+00  7.120120235087E+00
  7.205561677908E+00  7.292028418043E+00  7.379532759059E+00  7.468087152168E+00
  7.557704197994E+00  7.648396648370E+00  7.740177408151E+00  7.833059537048E+00
  7.927056251493E+00  8.022180926511E+00  8.118447097629E+00  8.215868462801E+00
  8.314458884354E+00  8.414232390966E+00  8.515203179658E+00  8.617385617814E+00
  8.720794245228E+00  8.825443776170E+00  8.931349101484E+00  9.038525290702E+00
  9.146987594191E+00  9.256751445321E+00  9.367832462665E+00  9.480246452217E+00
  9.594009409643E+00  9.709137522559E+00  9.825647172830E+00  9.943554938904E+00
  1.006287759817E+01  1.018363212935E+01  1.030583571490E+01  1.042950574348E+01
  1.055465981240E+01  1.068131573015E+01  1.080949151891E+01  1.093920541714E+01
  1.107047588214E+01  1.120332159273E+01  1.133776145184E+01  1.147381458927E+01
  1.161150036434E+01  1.175083836871E+01  1.189184842913E+01  1.203455061028E+01
  1.217896521761E+01  1.232511280022E+01  1.247301415382E+01  1.262269032367E+01
  1.277416260755E+01  1.292745255884E+01  1.308258198955E+01  1.323957297342E+01
  1.339844784910E+01  1.355922922329E+01  1.372193997397E+01  1.388660325366E+01
  1.405324249270E+01  1.422188140261E+01  1.439254397945E+01  1.456525450720E+01
  1.474003756129E+01  1.491691801202E+01  1.509592102817E+01  1.527707208050E+01
  1.546039694547E+01  1.564592170882E+01  1.583367276932E+01  1.602367684255E+01
  1.621596096466E+01  1.641055249624E+01  1.660747912619E+01  1.680676887571E+01
  1.700845010222E+01  1.721255150344E+01  1.741910212148E+01  1.762813134694E+01
  1.783966892311E+01  1.805374495018E+01  1.827038988959E+01  1.848963456826E+01
  1.871151018308E+01  1.893604830528E+01  1.916328088494E+01  1.939324025556E+01
  1.962595913863E+01  1.986147064829E+01  2.009980829607E+01  2.034100599562E+01
  2.058509806757E+01  2.083211924438E+01  2.108210467531E+01  2.133508993142E+01
  2.159111101059E+01  2.185020434272E+01  2.211240679483E+01  2.237775567637E+01
  2.264628874449E+01  2.291804420942E+01  2.319306073993E+01  2.347137746881E+01
  2.375303399844E+01  2.403807040642E+01  2.432652725130E+01  2.461844557831E+01
  2.491386692525E+01  2.521283332836E+01  2.551538732830E+01  2.582157197624E+01
  2.613143083995E+01  2.644500801003E+01  2.676234810615E+01  2.708349628342E+01
  2.740849823883E+01  2.773740021769E+01  2.807024902030E+01  2.840709200855E+01
  2.874797711265E+01  2.909295283800E+01  2.944206827206E+01  2.979537309132E+01
  3.015291756842E+01  3.051475257924E+01  3.088092961019E+01  3.125150076551E+01
  3.162651877470E+01  3.200603700000E+01  3.239010944400E+01  3.277879075732E+01
  3.317213624641E+01  3.357020188137E+01  3.397304430394E+01  3.438072083559E+01
  3.479328948562E+01  3.521080895945E+01  3.563333866696E+01  3.606093873096E+01
  3.649366999573E+01  3.693159403568E+01  3.737477316411E+01  3.782327044208E+01
  3.827714968739E+01  3.873647548363E+01  3.920131318944E+01  3.967172894771E+01
  4.014778969508E+01  4.062956317142E+01  4.111711792948E+01  4.161052334464E+01
  4.210984962477E+01  4.261516782027E+01  4.312654983411E+01  4.364406843212E+01
  4.416779725331E+01
</grid-data>
</grid>
<valence-charge total-charge="16" is-unscreening-charge="yes"
 rescaled-to-z-pseudo="no">
<radfunc>
<data npts="457">
  2.662071104668E-01  2.662258674753E-01  2.662829938700E-01  2.663818242327E-01
  2.665265549515E-01  2.667298247856E-01  2.670102357428E-01  2.673607100119E-01
  2.677922415455E-01  2.683455585874E-01  2.690338859669E-01  2.698597477660E-01
  2.709658548474E-01  2.722472537411E-01  2.739245797111E-01  2.757787035191E-01
  2.781352868325E-01  2.805879267360E-01  2.835994162637E-01  2.873050560689E-01
  2.918736713795E-01  2.962897725375E-01  3.015231827150E-01  3.077303630242E-01
  3.150977573306E-01  3.238473651950E-01  3.342432751123E-01  3.433072573230E-01
  3.536261664435E-01  3.653744667656E-01  3.787501873123E-01  3.939778762940E-01
  4.113118663086E-01  4.310398675926E-01  4.534869031118E-01  4.790195940911E-01
  5.080507972666E-01  5.410445852185E-01  5.654964686582E-01  5.921089425925E-01
  6.210643771022E-01  6.525589433788E-01  6.868033993555E-01  7.240238768985E-01
  7.644626615250E-01  8.083789537827E-01  8.560495993654E-01  9.077697727157E-01
  9.638535962752E-01  1.024634674666E+00  1.090466519916E+00  1.161722840353E+00
  1.238797662038E+00  1.322105247500E+00  1.412079772209E+00  1.509174714619E+00
  1.613861910804E+00  1.726630219776E+00  1.847983740610E+00  1.978439517553E+00
  2.118524664615E+00  2.268772836816E+00  2.429719971579E+00  2.601899220956E+00
  2.785834993762E+00  2.982036026712E+00  3.190987405626E+00  3.300387381040E+00
  3.413141462308E+00  3.529299384340E+00  3.648907480300E+00  3.772008291008E+00
  3.898640153977E+00  4.028836771975E+00  4.162626761087E+00  4.300033178400E+00
  4.441073029536E+00  4.585756756406E+00  4.734087705723E+00  4.886061578973E+00
  5.041665864738E+00  5.200879254469E+00  5.363671043018E+00  5.530000515486E+00
  5.699816322197E+00  5.873055843876E+00  6.049644549392E+00  6.229495348755E+00
  6.412507944357E+00  6.598568183783E+00  6.787547417901E+00  6.979301868261E+00
  7.173672008252E+00  7.370481962826E+00  7.569538932010E+00  7.770632643804E+00
  7.973534842499E+00  8.177998818799E+00  8.383758988574E+00  8.590530527400E+00
  8.798009068436E+00  9.005870471528E+00  9.213770671699E+00  9.421345615515E+00
  9.628211293992E+00  9.833963880913E+00  1.003817998552E+01  1.024041702860E+01
  1.044021375092E+01  1.063709086293E+01  1.083055184415E+01  1.102008390074E+01
  1.120515908892E+01  1.138523561137E+01  1.155975929319E+01  1.172816524290E+01
  1.188987970290E+01  1.204432209280E+01  1.219090724722E+01  1.232904784857E+01
  1.245815705304E+01  1.257765130651E+01  1.268695334454E+01  1.278549536860E+01
  1.287272238806E+01  1.294809571474E+01  1.301109659410E+01  1.306122995434E+01
  1.309802825130E+01  1.312105538450E+01  1.312991065599E+01  1.312423274099E+01
  1.310370363611E+01  1.306805254793E+01  1.301705968216E+01  1.295055989091E+01
  1.286844613347E+01  1.277067270410E+01  1.265725817896E+01  1.252828803339E+01
  1.238391688056E+01  1.222437028264E+01  1.204994608712E+01  1.186101524247E+01
  1.165802205035E+01  1.144148381518E+01  1.121198985645E+01  1.097019985495E+01
  1.071684151042E+01  1.045270749582E+01  1.017865170172E+01  9.895584773843E+00
  9.604468956383E+00  9.306312264926E+00  9.002162023595E+00  8.693097812721E+00
  8.380223884919E+00  8.064661118970E+00  7.747538592060E+00  7.429984861481E+00
  7.113119056497E+00  6.798041889533E+00  6.485826702767E+00  6.177510671395E+00
  5.874086287940E+00  5.576493252891E+00  5.285610895310E+00  5.002251242856E+00
  4.727152853724E+00  4.460975513350E+00  4.204295886382E+00  3.957604199542E+00
  3.721302013788E+00  3.495701124983E+00  3.281023611425E+00  3.077403024656E+00
  2.884886697341E+00  2.703439119482E+00  2.532946312288E+00  2.373221108378E+00
  2.224009228345E+00  2.084996027540E+00  1.955813774034E+00  1.836049309243E+00
  1.725251937386E+00  1.622941388658E+00  1.528615704149E+00  1.441758897768E+00
  1.361848261707E+00  1.288361196761E+00  1.220781466614E+00  1.158604795303E+00
  1.101343748703E+00  1.048531863210E+00  9.997270069402E-01  9.545139798944E-01
  9.125063788988E-01  8.733477700356E-01  8.367122252206E-01  8.023042902251E-01
  7.698584586079E-01  7.391382297478E-01  7.099348296584E-01  6.820656708721E-01
  6.553726228933E-01  6.297201580818E-01  6.049934299522E-01  5.810963323237E-01
  5.579495790791E-01  5.354888359258E-01  5.136629278457E-01  4.924321391074E-01
  4.717666169058E-01  4.516448849278E-01  4.320524693790E-01  4.129806371603E-01
  3.944252438742E-01  3.763855699682E-01  3.588628411616E-01  3.418588248704E-01
  3.253753956322E-01  3.094144047771E-01  2.939773554880E-01  2.790651837615E-01
  2.646780519418E-01  2.508151693419E-01  2.374746396949E-01  2.246533361558E-01
  2.123468044017E-01  2.005491941615E-01  1.892532192693E-01  1.784501460693E-01
  1.681298396178E-01  1.582809512479E-01  1.488911849853E-01  1.399473796204E-01
  1.314358629583E-01  1.233428887470E-01  1.156547248929E-01  1.083576331781E-01
  1.014379215210E-01  9.488196883342E-02  8.867625310111E-02  8.280737795446E-02
  7.726209795540E-02  7.202734246612E-02  6.709023799252E-02  6.243812892128E-02
  5.805859659284E-02  5.393947667382E-02  5.006887481192E-02  4.643518057305E-02
  4.302707967615E-02  3.983356455408E-02  3.684394328073E-02  3.404784691427E-02
  3.143523531481E-02  2.899640150162E-02  2.672197462043E-02  2.460292159562E-02
  2.263054754549E-02  2.079649504047E-02  1.909274228575E-02  1.751160030995E-02
  1.604570924117E-02  1.468803375095E-02  1.343185774482E-02  1.227077837669E-02
  1.119869946128E-02  1.020982435693E-02  9.298648387343E-03  8.459950868486E-03
  7.688786802910E-03  6.980478300846E-03  6.330605783696E-03  5.734999022185E-03
  5.189728057913E-03  4.691094053600E-03  4.235620113927E-03  3.820042115534E-03
  3.441299581521E-03  3.096526632621E-03  2.783043044223E-03  2.498345435494E-03
  2.240098614065E-03  2.006127097105E-03  1.794406827058E-03  1.603057097958E-03
  1.430332705954E-03  1.274616335552E-03  1.134411191101E-03  1.008333881161E-03
  8.951075616499E-04  7.935553420494E-04  7.025939574412E-04  6.212277077442E-04
  5.485426642562E-04  4.837011424204E-04  4.259364386706E-04  3.745478282328E-04
  3.288958198886E-04  2.883976629153E-04  2.525231007235E-04  2.207903650951E-04
  1.927624043915E-04  1.680433386417E-04  1.462751340349E-04  1.271344890211E-04
  1.103299239734E-04  9.559906616964E-05  8.270612171982E-05  7.143952597919E-05
  6.160976396021E-05  5.304735226712E-05  4.560097413571E-05  3.913575925534E-05
  3.353170018136E-05  2.868219730824E-05  2.449272456361E-05  2.087960819859E-05
  1.776891128579E-05  1.509541679031E-05  1.280170234833E-05  1.083730016889E-05
  9.157935764373E-06  7.724839512167E-06  6.504125350160E-06  5.466231211239E-06
  4.585416103524E-06  3.839309042366E-06  3.208505335235E-06  2.676206009894E-06
  2.227896458409E-06  1.851060643340E-06  1.534927476872E-06  1.270246237899E-06
  1.049088135397E-06  8.646713583891E-07  7.112071730027E-07  5.837648353154E-07
  4.781532847779E-07  3.908177670203E-07  3.187497068602E-07  2.594083125727E-07
  2.106525412081E-07  1.706821923115E-07  1.379870241980E-07  1.113029034236E-07
  8.957410473836E-08  7.192097612166E-08  5.761227201361E-08  4.604153809186E-08
  3.670700344985E-08  2.919450133976E-08  2.316299827875E-08  1.833236379740E-08
  1.447305992979E-08  1.139747118659E-08  8.952632671294E-09  7.014146629231E-09
  5.481106467824E-09  4.271872536729E-09  3.320566065427E-09  2.574166953633E-09
  1.990117901704E-09  1.534351933994E-09  1.179672963422E-09  9.044299029383E-10
  6.914341596403E-10  5.270783395048E-10  4.006208155212E-10  3.036066213583E-10
  2.294000620424E-10  1.728086023985E-10  1.297811090987E-10  9.716647617368E-11
  7.252113827800E-11  5.395604196612E-11  4.001536449423E-11  2.958069567695E-11
  2.179557717705E-11  1.600626486725E-11  1.171537742991E-11  8.545747001245E-12
  6.212319912068E-12  4.500388135727E-12  3.248782371013E-12  2.336940401505E-12
  1.674991719516E-12  1.196181570728E-12  8.511030150131E-13  6.033212913178E-13
  4.260664647940E-13  2.997427318415E-13  2.100597079190E-13  1.466356502013E-13
  1.019574043310E-13  7.060895392358E-14  4.870143372100E-14  3.345365486545E-14
  2.288462934739E-14  1.558909987585E-14  1.057433664021E-14  7.141969273674E-15
  4.802784654177E-15  3.215553965686E-15  2.143300272279E-15  1.422169808251E-15
  9.393717828011E-16  6.176142331200E-16  4.041723725848E-16  2.632455315045E-16
  1.706379635216E-16  1.100741860455E-16  7.065860717479E-17  4.513242911693E-17
  2.868338182384E-17  1.813692462748E-17  1.140937626758E-17  7.139998108774E-18
  4.444724710764E-18  2.752165226173E-18  1.694957949310E-18  1.038172891870E-18
  6.323796750818E-19  3.830489331904E-19  2.307113098916E-19  1.332208331500E-19
  7.941103357425E-20  4.705698057061E-20  2.771838546574E-20  0.000000000000E+00
  0.000000000000E+00  0.000000000000E+00  0.000000000000E+00  0.000000000000E+00
  0.000000000000E+00  0.000000000000E+00  0.000000000000E+00  0.000000000000E+00
  0.000000000000E+00  0.000000000000E+00  0.000000000000E+00  0.000000000000E+00
  0.000000000000E+00  0.000000000000E+00  0.000000000000E+00  0.000000000000E+00
  0.000000000000E+00  0.000000000000E+00  0.000000000000E+00  0.000000000000E+00
  0.000000000000E+00  0.000000000000E+00  0.000000000000E+00  0.000000000000E+00
  0.000000000000E+00
</data>
</radfunc>
</valence-charge>
<semilocal-potentials set="lj">
<slps n="5" l="s" j="0.5" rc="3.01641038423" eref="-0.563875316580">
<radfunc>
<data npts="290">
 -1.097535872154E+01 -1.097543856398E+01 -1.097567684747E+01 -1.097607311508E+01
 -1.097662142689E+01 -1.097733773820E+01 -1.097824300714E+01 -1.097926909798E+01
 -1.098040945017E+01 -1.098172145834E+01 -1.098317741038E+01 -1.098473254537E+01
 -1.098657420164E+01 -1.098845380520E+01 -1.099061411290E+01 -1.099271078873E+01
 -1.099505098103E+01 -1.099719715782E+01 -1.099952776004E+01 -1.100204569791E+01
 -1.100475021586E+01 -1.100704477707E+01 -1.100945028915E+01 -1.101195913703E+01
 -1.101456110348E+01 -1.101724333592E+01 -1.101999048525E+01 -1.102208299652E+01
 -1.102419425422E+01 -1.102631602535E+01 -1.102844008362E+01 -1.103055853862E+01
 -1.103266421721E+01 -1.103475108778E+01 -1.103681471406E+01 -1.103885272090E+01
 -1.104086525152E+01 -1.104285539409E+01 -1.104417273564E+01 -1.104548568181E+01
 -1.104679776117E+01 -1.104811326990E+01 -1.104943728356E+01 -1.105077565894E+01
 -1.105213502596E+01 -1.105352276932E+01 -1.105494700010E+01 -1.105641651751E+01
 -1.105794076080E+01 -1.105952975174E+01 -1.106119402781E+01 -1.106294456608E+01
 -1.106479269803E+01 -1.106675001497E+01 -1.106882826387E+01 -1.107103923317E+01
 -1.107339462794E+01 -1.107590593361E+01 -1.107858426727E+01 -1.108144021552E+01
 -1.108448365752E+01 -1.108772357205E+01 -1.109116782690E+01 -1.109482294932E+01
 -1.109869387582E+01 -1.110278367998E+01 -1.110707123783E+01 -1.110927972483E+01
 -1.111154165111E+01 -1.111385639579E+01 -1.111622313924E+01 -1.111864085073E+01
 -1.112110827572E+01 -1.112362392267E+01 -1.112618604945E+01 -1.112879264932E+01
 -1.113144143648E+01 -1.113412983127E+01 -1.113685494485E+01 -1.113961356367E+01
 -1.114240213344E+01 -1.114521674287E+01 -1.114805310698E+01 -1.115090655030E+01
 -1.115377198968E+01 -1.115664391698E+01 -1.115951638163E+01 -1.116238297300E+01
 -1.116523680290E+01 -1.116807048788E+01 -1.117087613190E+01 -1.117364530892E+01
 -1.117636904597E+01 -1.117903780644E+01 -1.118164147393E+01 -1.118416933658E+01
 -1.118661007218E+01 -1.118895173405E+01 -1.119118173784E+01 -1.119328684949E+01
 -1.119525317437E+01 -1.119706614783E+01 -1.119871052732E+01 -1.120017038622E+01
 -1.120142910960E+01 -1.120246939201E+01 -1.120327323764E+01 -1.120382196283E+01
 -1.120409620132E+01 -1.120407591232E+01 -1.120374039161E+01 -1.120306828591E+01
 -1.120203761061E+01 -1.120062577118E+01 -1.119880958833E+01 -1.119656532702E+01
 -1.119386872971E+01 -1.119069505369E+01 -1.118701911282E+01 -1.118281532360E+01
 -1.117805775584E+01 -1.117272018765E+01 -1.116677616512E+01 -1.116019906632E+01
 -1.115296216970E+01 -1.114503872677E+01 -1.113640203880E+01 -1.112702553734E+01
 -1.111688286827E+01 -1.110594797907E+01 -1.109419520882E+01 -1.108159938048E+01
 -1.106813589498E+01 -1.105378082633E+01 -1.103851101732E+01 -1.102230417478E+01
 -1.100513896385E+01 -1.098699510020E+01 -1.096785343934E+01 -1.094769606204E+01
 -1.092650635480E+01 -1.090426908429E+01 -1.088097046475E+01 -1.085659821708E+01
 -1.083114161866E+01 -1.080459154271E+01 -1.077694048612E+01 -1.074818258477E+01
 -1.071831361534E+01 -1.068733098277E+01 -1.065523369265E+01 -1.062202230777E+01
 -1.058769888867E+01 -1.055226691761E+01 -1.051573120616E+01 -1.047809778645E+01
 -1.043937378669E+01 -1.039956729160E+01 -1.035868718889E+01 -1.031674300333E+01
 -1.027374472004E+01 -1.022970259936E+01 -1.018462698591E+01 -1.013852811476E+01
 -1.009141591845E+01 -1.004329983847E+01 -9.994188645910E+00 -9.944090275730E+00
 -9.893011680025E+00 -9.840958705609E+00 -9.787936001615E+00 -9.733946962841E+00
 -9.678993714483E+00 -9.623077143549E+00 -9.566196981624E+00 -9.508351942663E+00
 -9.449481998523E+00 -9.389652665919E+00 -9.328853644376E+00 -9.267082239914E+00
 -9.204336226377E+00 -9.140614275971E+00 -9.075916407115E+00 -9.010244431822E+00
 -8.943602382520E+00 -8.875996896891E+00 -8.807437539607E+00 -8.737937041731E+00
 -8.667511442375E+00 -8.596180122629E+00 -8.523965728506E+00 -8.450893987062E+00
 -8.376993427143E+00 -8.302295022748E+00 -8.226831781931E+00 -8.150638307185E+00
 -8.073750354082E+00 -7.996204413692E+00 -7.918037341347E+00 -7.839286050156E+00
 -7.759987282847E+00 -7.680177470698E+00 -7.599892683847E+00 -7.519168673571E+00
 -7.438041004330E+00 -7.356545271535E+00 -7.274717400010E+00 -7.192594017901E+00
 -7.110212901005E+00 -7.027613483117E+00 -6.944837428643E+00 -6.861929264321E+00
 -6.778937067273E+00 -6.695913206582E+00 -6.612915135142E+00 -6.530006227499E+00
 -6.447256657810E+00 -6.364744344037E+00 -6.282556045091E+00 -6.200788504857E+00
 -6.119549345414E+00 -6.038957843016E+00 -5.959145706992E+00 -5.880257737542E+00
 -5.802452350743E+00 -5.725901922091E+00 -5.650792900592E+00 -5.577325642705E+00
 -5.505713915045E+00 -5.436184017004E+00 -5.368973479958E+00 -5.304329309085E+00
 -5.241432599373E+00 -5.179279288090E+00 -5.117863477289E+00 -5.057176155988E+00
 -4.997208642018E+00 -4.937952377587E+00 -4.879398892923E+00 -4.821539834118E+00
 -4.764366947744E+00 -4.707872081434E+00 -4.652047182004E+00 -4.596884293904E+00
 -4.542375557737E+00 -4.488513208841E+00 -4.435289575928E+00 -4.382697079774E+00
 -4.330728231951E+00 -4.279375633607E+00 -4.228631974273E+00 -4.178490030713E+00
 -4.128942665797E+00 -4.079982827404E+00 -4.031603547348E+00 -3.983797940335E+00
 -3.936559202928E+00 -3.889880612543E+00 -3.843755526457E+00 -3.798177380835E+00
 -3.753139689774E+00 -3.708636044359E+00 -3.664660111736E+00 -3.621205634200E+00
 -3.578266428290E+00 -3.535836383903E+00 -3.493909463417E+00 -3.452479700825E+00
 -3.411541200883E+00 -3.371088138266E+00 -3.331114756736E+00 -3.291615368321E+00
 -3.252584352503E+00 -3.214016155417E+00 -3.175905289060E+00 -3.138246330508E+00
 -3.101033921144E+00 -3.064262765893E+00 -3.027927632474E+00 -2.992023350646E+00
 -2.956544811479E+00 -2.921486966626E+00 -2.886844827600E+00 -2.852613465069E+00
 -2.818788008151E+00 -2.785363643725E+00 -2.752335615740E+00 -2.719699224544E+00
 -2.687449826211E+00 -2.655582831883E+00
</data>
</radfunc>
</slps>
<slps n="5" l="p" j="1.5" rc="3.12630945971" eref="-0.215475918147">
<radfunc>
<data npts="290">
 -1.278513347000E+01 -1.278512943353E+01 -1.278511697106E+01 -1.278509489448E+01
 -1.278506153552E+01 -1.278501295973E+01 -1.278494330388E+01 -1.278485290230E+01
 -1.278473772540E+01 -1.278458538264E+01 -1.278439049402E+01 -1.278415095684E+01
 -1.278382320016E+01 -1.278343654880E+01 -1.278292278648E+01 -1.278234817555E+01
 -1.278161146855E+01 -1.278084023889E+01 -1.277989014503E+01 -1.277871975328E+01
 -1.277727879021E+01 -1.277589090858E+01 -1.277425502352E+01 -1.277232959316E+01
 -1.277006748752E+01 -1.276741573863E+01 -1.276431545709E+01 -1.276165719931E+01
 -1.275868107796E+01 -1.275535625127E+01 -1.275165055292E+01 -1.274753077170E+01
 -1.274296298626E+01 -1.273791294676E+01 -1.273234649121E+01 -1.272622998043E+01
 -1.271953073257E+01 -1.271221743685E+01 -1.270698608601E+01 -1.270146037819E+01
 -1.269563249117E+01 -1.268949507015E+01 -1.268304124634E+01 -1.267626464774E+01
 -1.266915940189E+01 -1.266172013088E+01 -1.265394193881E+01 -1.264582039203E+01
 -1.263735149272E+01 -1.262853164610E+01 -1.261935762182E+01 -1.260982650978E+01
 -1.259993567074E+01 -1.258968268171E+01 -1.257906527621E+01 -1.256808127908E+01
 -1.255672853557E+01 -1.254500483399E+01 -1.253290782135E+01 -1.252043491087E+01
 -1.250758318040E+01 -1.249434926047E+01 -1.248072921060E+01 -1.246671838240E+01
 -1.245231126794E+01 -1.243750133176E+01 -1.242225878619E+01 -1.241446341464E+01
 -1.240656112978E+01 -1.239855054580E+01 -1.239043015969E+01 -1.238219834298E+01
 -1.237385333302E+01 -1.236539322397E+01 -1.235681595735E+01 -1.234811931230E+01
 -1.233930089532E+01 -1.233035812980E+01 -1.232128824505E+01 -1.231208826504E+01
 -1.230275499677E+01 -1.229328501832E+01 -1.228367466652E+01 -1.227392002444E+01
 -1.226401690852E+01 -1.225396085550E+01 -1.224374710913E+01 -1.223337060674E+01
 -1.222282596573E+01 -1.221210746992E+01 -1.220120905595E+01 -1.219012429977E+01
 -1.217884640323E+01 -1.216736818086E+01 -1.215568204703E+01 -1.214378000345E+01
 -1.213165362719E+01 -1.211929405926E+01 -1.210669199403E+01 -1.209383766934E+01
 -1.208072085773E+01 -1.206733085870E+01 -1.205365649229E+01 -1.203968609404E+01
 -1.202540751158E+01 -1.201080810288E+01 -1.199587473653E+01 -1.198059379401E+01
 -1.196495117426E+01 -1.194893230074E+01 -1.193252213103E+01 -1.191570516932E+01
 -1.189846548178E+01 -1.188078671517E+01 -1.186265211869E+01 -1.184404456930E+01