<?xml version="1.0" encoding="UTF-8" ?>
<psml version="1.2" energy_unit="hartree" length_unit="bohr"
 uuid="c1d00520-3d8b-11f1-7c86-6936d773923a"
 xmlns="http://esl.cecam.org/PSML/ns/1.2">
<provenance creator="METAPSP-1.0.2+psml-4.0.1-81 (non-relativistic)"
 date="2026-04-21">
<annotation action-cont="projectors-generation" />
<input-file name="oncvpsp-input">
<![CDATA[# ATOM AND REFERENCE CONFIGURATION
# atsym  z   nc   nv     iexc    psfile
  Ba 56.00    9    3       5      psml
#
#   n    l    f
    1    0    2.00
    2    0    2.00
    2    1    6.00
    3    0    2.00
    3    1    6.00
    3    2   10.00
    4    0    2.00
    4    1    6.00
    4    2   10.00
    5    0    2.00
    5    1    6.00
    6    0    2.00
#
# PSEUDOPOTENTIAL AND OPTIMIZATION
# lmax
    3
#
#   l,   rc,      ep,       ncon, nbas, qcut
    0   2.50000   0.00000    4    8   5.00000
    1   2.50000   0.20000    4    8   5.00000
    2   2.70000   0.05000    4    9   6.00000
    3   2.40000   0.10000    4    9   7.50000
#
# LOCAL POTENTIAL
# lloc, lpopt,  rc(5),   dvloc0
    4    5   2.20000      0.00000
#
# VANDERBILT-KLEINMAN-BYLANDER PROJECTORs
# l, nproj, debl
    0    3   2.00000
    1    2   1.50000
    2    2   1.50000
    3    2   1.50000
#
# MODEL CORE CHARGE
# icmod, fcfact, rcfact
    5   4.00000   0.50000
#
# LOG DERIVATIVE ANALYSIS
# epsh1, epsh2, depsh
   -5.00    5.00    0.02
#
# OUTPUT GRID
# rlmax, drl
    6.00    0.01
#
# TEST CONFIGURATIONS
# ncnf
    0
# nvcnf
#   n    l    f
]]>
</input-file>
</provenance>
<pseudo-atom-spec atomic-label="Ba" atomic-number="56" z-pseudo="10"
 flavor="Hamann`s oncvpsp" relativity="no" spin-dft="no" core-corrections="yes"
 meta-gga="yes">
<annotation pseudo-energy="-14.0606365385" cutoff_hint_low="19"
 cutoff_hint_normal="24" cutoff_hint_high="28" />
<exchange-correlation>
<annotation oncvpsp-xc-code="5" oncvpsp-xc-type="METAGGA -- Perdew" />
<libxc-info number-of-functionals="2">
<functional name="R2SCAN01 (MGGA)" type="exchange" id="645" />
<functional name="R2SCAN01 (MGGA)" type="correlation" id="642" />
</libxc-info>
</exchange-correlation>
<valence-configuration total-valence-charge="10">
<shell n="5" l="s" occupation="2" />
<shell n="5" l="p" occupation="6" />
<shell n="6" l="s" occupation="2" />
</valence-configuration>
</pseudo-atom-spec>
<grid npts="1363">
<annotation type="sampled from oncvpsp log grid"
 recipe="r(i:1..N) = r1*exp(a*(i-1)) + r=0; resampled"
 recipe-cont="r1: scale; a: step" scale="0.892857142857E-05"
 step="0.299550897980E-02" delta="0.500000000000E-02" rmax="44.8629642481" />
<grid-data>
  0.000000000000E+00  5.007874647428E-03  1.003390327542E-02  1.503473812512E-02
  2.004404817718E-02  2.509316339035E-02  3.012397848180E-02  3.520147372333E-02
  4.028124004324E-02  4.540881331782E-02  5.042812355250E-02  5.550123727776E-02
  6.053823047905E-02  6.563793568359E-02  7.074214751389E-02  7.578786956335E-02
  8.095062858954E-02  8.620646146295E-02  9.125518424052E-02  9.631065592217E-02
  1.013421705932E-01  1.066365444425E-01  1.118718942225E-01  1.170132351999E-01
  1.220247844687E-01  1.272509729280E-01  1.323040810969E-01  1.375578470807E-01
  1.425924615723E-01  1.478113428551E-01  1.532212350899E-01  1.583540670727E-01
  1.636588462673E-01  1.691413328163E-01  1.742846259459E-01  1.795843176553E-01
  1.850451637525E-01  1.901017593836E-01  1.952965329538E-01  2.006332603519E-01
  2.061158206478E-01  2.117481989118E-01  2.168838375986E-01  2.221440335891E-01
  2.275318078361E-01  2.330502545610E-01  2.387025430312E-01  2.437606374673E-01
  2.489259126607E-01  2.542006397661E-01  2.595871380636E-01  2.650877759792E-01
  2.707049721252E-01  2.764411963646E-01  2.814546070752E-01  2.865589387024E-01
  2.917558401462E-01  2.970469902103E-01  3.024340981445E-01  3.079189041966E-01
  3.135031801750E-01  3.191887300206E-01  3.249773903897E-01  3.308710312475E-01
  3.368715564720E-01  3.419550393510E-01  3.471152333613E-01  3.523532960945E-01
  3.576704026107E-01  3.630677457021E-01  3.685465361601E-01  3.741080030477E-01
  3.797533939744E-01  3.854839753768E-01  3.913010328022E-01  3.972058711970E-01
  4.031998151999E-01  4.092842094386E-01  4.154604188316E-01  4.204684236236E-01
  4.255367954466E-01  4.306662619714E-01  4.358575596400E-01  4.411114337718E-01
  4.464286386703E-01  4.518099377313E-01  4.572561035528E-01  4.627679180457E-01
  4.683461725462E-01  4.739916679294E-01  4.797052147241E-01  4.854876332294E-01
  4.913397536324E-01  4.972624161271E-01  5.032564710358E-01  5.093227789301E-01
  5.154622107554E-01  5.216756479555E-01  5.279639825992E-01  5.343281175083E-01
  5.407689663875E-01  5.472874539552E-01  5.538845160765E-01  5.605610998977E-01
  5.656213000817E-01  5.707271788293E-01  5.758791484822E-01  5.810776251043E-01
  5.863230285152E-01  5.916157823243E-01  5.969563139650E-01  6.023450547290E-01
  6.077824398013E-01  6.132689082955E-01  6.188049032890E-01  6.243908718587E-01
  6.300272651175E-01  6.357145382505E-01  6.414531505516E-01  6.472435654608E-01
  6.530862506018E-01  6.589816778193E-01  6.649303232175E-01  6.709326671983E-01
  6.769891945003E-01  6.831003942377E-01  6.892667599402E-01  6.954887895924E-01
  7.017669856743E-01  7.081018552017E-01  7.144939097673E-01  7.209436655821E-01
  7.274516435168E-01  7.340183691440E-01  7.406443727808E-01  7.473301895313E-01
  7.540763593301E-01  7.608834269858E-01  7.677519422251E-01  7.746824597368E-01
  7.816755392173E-01  7.887317454151E-01  7.958516481767E-01  8.030358224928E-01
  8.102848485444E-01  8.175993117499E-01  8.249798028122E-01  8.324269177667E-01
  8.374289711155E-01  8.424610818030E-01  8.475234304435E-01  8.526161987371E-01
  8.577395694753E-01  8.628937265482E-01  8.680788549511E-01  8.732951407905E-01
  8.785427712915E-01  8.838219348042E-01  8.891328208104E-01  8.944756199307E-01
  8.998505239308E-01  9.052577257291E-01  9.106974194030E-01  9.161698001962E-01
  9.216750645256E-01  9.272134099883E-01  9.327850353690E-01  9.383901406465E-01
  9.440289270016E-01  9.497015968240E-01  9.554083537193E-01  9.611494025168E-01
  9.669249492765E-01  9.727352012967E-01  9.785803671213E-01  9.844606565473E-01
  9.903762806325E-01  9.963274517029E-01  1.002314383360E+00  1.008337290490E+00
  1.014396389268E+00  1.020491897171E+00  1.026624032982E+00  1.032793016796E+00
  1.038999070034E+00  1.045242415445E+00  1.051523277120E+00  1.057841880492E+00
  1.064198452352E+00  1.070593220852E+00  1.077026415516E+00  1.083498267247E+00
  1.090009008335E+00  1.096558872466E+00  1.103148094731E+00  1.109776911632E+00
  1.116445561094E+00  1.123154282471E+00  1.129903316554E+00  1.136692905583E+00
  1.143523293253E+00  1.150394724722E+00  1.157307446623E+00  1.164261707070E+00
  1.171257755667E+00  1.178295843521E+00  1.185376223245E+00  1.192499148970E+00
  1.199664876356E+00  1.206873662598E+00  1.214125766437E+00  1.221421448168E+00
  1.228760969650E+00  1.236144594316E+00  1.243572587183E+00  1.251045214860E+00
  1.258562745556E+00  1.266125449094E+00  1.273733596918E+00  1.281387462101E+00
  1.289087319361E+00  1.296833445063E+00  1.304626117235E+00  1.312465615573E+00
  1.320352221457E+00  1.328286217956E+00  1.336267889840E+00  1.344297523590E+00
  1.352375407409E+00  1.360501831232E+00  1.368677086736E+00  1.376901467350E+00
  1.385175268267E+00  1.393498786454E+00  1.401872320662E+00  1.410296171437E+00
  1.418770641131E+00  1.427296033914E+00  1.435872655782E+00  1.444500814570E+00
  1.453180819965E+00  1.461912983512E+00  1.470697618630E+00  1.479535040620E+00
  1.488425566679E+00  1.497369515910E+00  1.506367209331E+00  1.515418969892E+00
  1.524525122482E+00  1.533685993943E+00  1.542901913080E+00  1.552173210676E+00
  1.561500219499E+00  1.570883274318E+00  1.580322711913E+00  1.589818871089E+00
  1.599372092685E+00  1.608982719590E+00  1.618651096752E+00  1.628377571193E+00
  1.638162492018E+00  1.648006210433E+00  1.657909079751E+00  1.667871455411E+00
  1.672875069778E+00  1.677893694987E+00  1.682927376072E+00  1.687976158200E+00
  1.693040086675E+00  1.698119206935E+00  1.703213564556E+00  1.708323205249E+00
  1.713448174865E+00  1.718588519390E+00  1.723744284948E+00  1.728915517803E+00
  1.734102264356E+00  1.739304571149E+00  1.744522484862E+00  1.749756052317E+00
  1.755005320474E+00  1.760270336435E+00  1.765551147445E+00  1.770847800887E+00
  1.776160344290E+00  1.781488825323E+00  1.786833291799E+00  1.792193791674E+00
  1.797570373049E+00  1.802963084168E+00  1.808371973421E+00  1.813797089341E+00
  1.819238480609E+00  1.824696196051E+00  1.830170284639E+00  1.835660795493E+00
  1.841167777879E+00  1.846691281213E+00  1.852231355057E+00  1.857788049122E+00
  1.863361413269E+00  1.868951497509E+00  1.874558352001E+00  1.880182027057E+00
  1.885822573139E+00  1.891480040858E+00  1.897154480981E+00  1.902845944424E+00
  1.908554482257E+00  1.914280145704E+00  1.920022986141E+00  1.925783055099E+00
  1.931560404264E+00  1.937355085477E+00  1.943167150734E+00  1.948996652186E+00
  1.954843642142E+00  1.960708173069E+00  1.966590297588E+00  1.972490068481E+00
  1.978407538686E+00  1.984342761302E+00  1.990295789586E+00  1.996266676955E+00
  2.002255476986E+00  2.008262243417E+00  2.014287030147E+00  2.020329891237E+00
  2.026390880911E+00  2.032470053554E+00  2.038567463715E+00  2.044683166106E+00
  2.050817215604E+00  2.056969667251E+00  2.063140576253E+00  2.069329997981E+00
  2.075537987975E+00  2.081764601939E+00  2.088009895745E+00  2.094273925432E+00
  2.100556747209E+00  2.106858417450E+00  2.113178992703E+00  2.119518529681E+00
  2.125877085270E+00  2.132254716525E+00  2.138651480675E+00  2.145067435117E+00
  2.151502637422E+00  2.157957145335E+00  2.164431016771E+00  2.170924309821E+00
  2.177437082750E+00  2.183969393999E+00  2.190521302181E+00  2.197092866087E+00
  2.203684144686E+00  2.210295197120E+00  2.216926082711E+00  2.223576860959E+00
  2.230247591542E+00  2.236938334317E+00  2.243649149320E+00  2.250380096767E+00
  2.257131237058E+00  2.263902630769E+00  2.270694338661E+00  2.277506421677E+00
  2.284338940942E+00  2.291191957765E+00  2.298065533638E+00  2.304959730239E+00
  2.311874609430E+00  2.318810233258E+00  2.325766663958E+00  2.332743963950E+00
  2.339742195842E+00  2.346761422429E+00  2.353801706697E+00  2.360863111817E+00
  2.367945701152E+00  2.375049538256E+00  2.382174686870E+00  2.389321210931E+00
  2.396489174564E+00  2.403678642087E+00  2.410889678014E+00  2.418122347048E+00
  2.425376714089E+00  2.432652844231E+00  2.439950802764E+00  2.447270655172E+00
  2.454612467138E+00  2.461976304539E+00  2.469362233453E+00  2.476770320153E+00
  2.484200631114E+00  2.491653233007E+00  2.499128192706E+00  2.506625577284E+00
  2.514145454016E+00  2.521687890378E+00  2.529252954049E+00  2.536840712911E+00
  2.544451235050E+00  2.552084588755E+00  2.559740842521E+00  2.567420065049E+00
  2.575122325244E+00  2.582847692220E+00  2.590596235296E+00  2.598368024002E+00
  2.606163128074E+00  2.613981617459E+00  2.621823562311E+00  2.629689032998E+00
  2.637578100097E+00  2.645490834397E+00  2.653427306900E+00  2.661387588821E+00
  2.669371751588E+00  2.677379866842E+00  2.685412006443E+00  2.693468242462E+00
  2.701548647190E+00  2.709653293131E+00  2.717782253010E+00  2.725935599770E+00
  2.734113406569E+00  2.742315746789E+00  2.750542694029E+00  2.758794322111E+00
  2.767070705077E+00  2.775371917193E+00  2.783698032944E+00  2.792049127043E+00
  2.800425274424E+00  2.808826550247E+00  2.817253029898E+00  2.825704788988E+00
  2.834181903355E+00  2.842684449065E+00  2.851212502412E+00  2.859766139919E+00
  2.868345438339E+00  2.876950474654E+00  2.885581326078E+00  2.894238070056E+00
  2.902920784266E+00  2.911629546619E+00  2.920364435259E+00  2.929125528565E+00
  2.937912905151E+00  2.946726643866E+00  2.955566823798E+00  2.964433524269E+00
  2.973326824842E+00  2.982246805316E+00  2.991193545732E+00  3.000167126369E+00
  3.009167627749E+00  3.018195130632E+00  3.027249716024E+00  3.036331465172E+00
  3.045440459567E+00  3.054576780946E+00  3.063740511289E+00  3.072931732823E+00
  3.082150528021E+00  3.091396979605E+00  3.100671170544E+00  3.109973184056E+00
  3.119303103608E+00  3.128661012919E+00  3.138046995957E+00  3.147461136945E+00
  3.156903520356E+00  3.166374230917E+00  3.175873353610E+00  3.185400973671E+00
  3.194957176592E+00  3.204542048122E+00  3.214155674266E+00  3.223798141289E+00
  3.233469535713E+00  3.243169944320E+00  3.252899454153E+00  3.262658152515E+00
  3.272446126973E+00  3.282263465354E+00  3.292110255750E+00  3.301986586517E+00
  3.311892546276E+00  3.321828223915E+00  3.331793708587E+00  3.341789089713E+00
  3.351814456982E+00  3.361869900353E+00  3.371955510054E+00  3.382071376584E+00
  3.392217590714E+00  3.402394243486E+00  3.412601426216E+00  3.422839230495E+00
  3.433107748187E+00  3.443407071431E+00  3.453737292645E+00  3.464098504523E+00
  3.474490800037E+00  3.484914272437E+00  3.495369015254E+00  3.505855122300E+00
  3.516372687667E+00  3.526921805730E+00  3.537502571147E+00  3.548115078861E+00
  3.558759424097E+00  3.569435702370E+00  3.580144009477E+00  3.590884441505E+00
  3.601657094830E+00  3.612462066114E+00  3.623299452312E+00  3.634169350669E+00
  3.645071858721E+00  3.656007074298E+00  3.666975095520E+00  3.677976020807E+00
  3.689009948869E+00  3.700076978716E+00  3.711177209652E+00  3.722310741281E+00
  3.733477673505E+00  3.744678106525E+00  3.755912140845E+00  3.767179877268E+00
  3.778481416899E+00  3.789816861150E+00  3.801186311734E+00  3.812589870669E+00
  3.824027640281E+00  3.835499723202E+00  3.847006222371E+00  3.858547241038E+00
  3.870122882761E+00  3.881733251410E+00  3.893378451164E+00  3.905058586517E+00
  3.916773762277E+00  3.928524083564E+00  3.940309655814E+00  3.952130584782E+00
  3.963986976536E+00  3.975878937466E+00  3.987806574278E+00  3.999769994001E+00
  4.011769303983E+00  4.023804611895E+00  4.035876025731E+00  4.047983653808E+00
  4.060127604769E+00  4.072307987584E+00  4.084524911546E+00  4.096778486281E+00
  4.109068821740E+00  4.121396028205E+00  4.133760216290E+00  4.146161496939E+00
  4.158599981429E+00  4.171075781374E+00  4.183589008718E+00  4.196139775744E+00
  4.208728195071E+00  4.221354379656E+00  4.234018442795E+00  4.246720498124E+00
  4.259460659618E+00  4.272239041597E+00  4.285055758722E+00  4.297910925998E+00
  4.310804658776E+00  4.323737072752E+00  4.336708283971E+00  4.349718408822E+00
  4.362767564049E+00  4.375855866741E+00  4.388983434341E+00  4.402150384644E+00
  4.415356835798E+00  4.428602906306E+00  4.441888715025E+00  4.455214381170E+00
  4.468580024313E+00  4.481985764386E+00  4.495431721679E+00  4.508918016844E+00
  4.522444770895E+00  4.536012105207E+00  4.549620141523E+00  4.563269001948E+00
  4.576958808954E+00  4.590689685380E+00  4.604461754437E+00  4.618275139700E+00
  4.632129965119E+00  4.646026355014E+00  4.659964434079E+00  4.673944327382E+00
  4.687966160364E+00  4.702030058845E+00  4.716136149021E+00  4.730284557468E+00
  4.744475411141E+00  4.758708837374E+00  4.772984963886E+00  4.787303918778E+00
  4.801665830534E+00  4.816070828026E+00  4.830519040510E+00  4.845010597632E+00
  4.859545629424E+00  4.874124266313E+00  4.888746639112E+00  4.903412879029E+00
  4.918123117666E+00  4.932877487019E+00  4.947676119480E+00  4.962519147839E+00
  4.977406705282E+00  4.992338925398E+00  5.007315942174E+00  5.022337890001E+00
  5.037404903671E+00  5.052517118382E+00  5.067674669737E+00  5.082877693746E+00
  5.098126326827E+00  5.113420705808E+00  5.128760967925E+00  5.144147250829E+00
  5.159579692581E+00  5.175058431659E+00  5.190583606954E+00  5.206155357775E+00
  5.221773823848E+00  5.237439145320E+00  5.253151462756E+00  5.268910917144E+00
  5.284717649896E+00  5.300571802845E+00  5.316473518254E+00  5.332422938808E+00
  5.348420207625E+00  5.364465468248E+00  5.380558864653E+00  5.396700541246E+00
  5.412890642870E+00  5.429129314799E+00  5.445416702743E+00  5.461752952851E+00
  5.478138211710E+00  5.494572626345E+00  5.511056344224E+00  5.527589513257E+00
  5.544172281797E+00  5.560804798642E+00  5.577487213038E+00  5.594219674677E+00
  5.611002333701E+00  5.627835340702E+00  5.644718846724E+00  5.661653003264E+00
  5.678637962274E+00  5.695673876161E+00  5.712760897790E+00  5.729899180483E+00
  5.747088878024E+00  5.764330144658E+00  5.781623135092E+00  5.798968004498E+00
  5.816364908511E+00  5.833814003237E+00  5.851315445246E+00  5.868869391582E+00
  5.886475999757E+00  5.904135427756E+00  5.921847834039E+00  5.939613377542E+00
  5.957432217674E+00  5.975304514327E+00  5.993230427870E+00  6.011210119154E+00
  6.029243749511E+00  6.047331480760E+00  6.065473475202E+00  6.083669895628E+00
  6.101920905315E+00  6.120226668031E+00  6.138587348035E+00  6.157003110079E+00
  6.175474119409E+00  6.194000541767E+00  6.212582543392E+00  6.231220291023E+00
  6.249913951896E+00  6.268663693751E+00  6.287469684833E+00  6.306332093887E+00
  6.325251090169E+00  6.344226843439E+00  6.363259523970E+00  6.382349302542E+00
  6.401496350449E+00  6.420700839501E+00  6.439962942019E+00  6.459282830845E+00
  6.478660679338E+00  6.498096661376E+00  6.517590951360E+00  6.537143724214E+00
  6.556755155386E+00  6.576425420853E+00  6.596154697115E+00  6.615943161207E+00
  6.635790990690E+00  6.655698363662E+00  6.675665458753E+00  6.695692455129E+00
  6.715779532495E+00  6.735926871092E+00  6.756134651706E+00  6.776403055661E+00
  6.796732264828E+00  6.817122461622E+00  6.837573829007E+00  6.858086550494E+00
  6.878660810146E+00  6.899296792576E+00  6.919994682954E+00  6.940754667003E+00
  6.961576931004E+00  6.982461661797E+00  7.003409046782E+00  7.024419273922E+00
  7.045492531744E+00  7.066629009339E+00  7.087828896367E+00  7.109092383056E+00
  7.130419660206E+00  7.151810919186E+00  7.173266351944E+00  7.194786151000E+00
  7.216370509453E+00  7.238019620981E+00  7.259733679844E+00  7.281512880883E+00
  7.303357419526E+00  7.325267491785E+00  7.347243294260E+00  7.369285024143E+00
  7.391392879215E+00  7.413567057853E+00  7.435807759026E+00  7.458115182304E+00
  7.480489527850E+00  7.502930996434E+00  7.525439789423E+00  7.548016108792E+00
  7.570660157118E+00  7.593372137589E+00  7.616152254002E+00  7.639000710764E+00
  7.661917712896E+00  7.684903466035E+00  7.707958176433E+00  7.731082050962E+00
  7.754275297115E+00  7.777538123007E+00  7.800870737376E+00  7.824273349588E+00
  7.847746169637E+00  7.871289408145E+00  7.894903276370E+00  7.918587986199E+00
  7.942343750158E+00  7.966170781408E+00  7.990069293752E+00  8.014039501634E+00
  8.038081620138E+00  8.062195864999E+00  8.086382452594E+00  8.110641599952E+00
  8.134973524752E+00  8.159378445326E+00  8.183856580662E+00  8.208408150404E+00
  8.233033374855E+00  8.257732474979E+00  8.282505672404E+00  8.307353189422E+00
  8.332275248990E+00  8.357272074737E+00  8.382343890961E+00  8.407490922634E+00
  8.432713395402E+00  8.458011535588E+00  8.483385570195E+00  8.508835726905E+00
  8.534362234086E+00  8.559965320788E+00  8.585645216751E+00  8.611402152401E+00
  8.637236358858E+00  8.663148067935E+00  8.689137512139E+00  8.715204924675E+00
  8.741350539449E+00  8.767574591067E+00  8.793877314841E+00  8.820258946785E+00
  8.846719723625E+00  8.873259882796E+00  8.899879662445E+00  8.926579301432E+00
  8.953359039336E+00  8.980219116454E+00  9.007159773804E+00  9.034181253125E+00
  9.061283796885E+00  9.088467648275E+00  9.115733051220E+00  9.143080250374E+00
  9.170509491125E+00  9.198021019598E+00  9.225615082657E+00  9.253291927905E+00
  9.281051803689E+00  9.308894959100E+00  9.336821643977E+00  9.364832108909E+00
  9.392926605236E+00  9.421105385051E+00  9.449368701206E+00  9.477716807310E+00
  9.506149957732E+00  9.534668407605E+00  9.563272412828E+00  9.591962230067E+00
  9.620738116757E+00  9.649600331107E+00  9.678549132100E+00  9.707584779497E+00
  9.736707533835E+00  9.765917656437E+00  9.795215409406E+00  9.824601055634E+00
  9.854074858801E+00  9.883637083377E+00  9.913287994628E+00  9.943027858611E+00
  9.972856942187E+00  1.000277551301E+01  1.003278383955E+01  1.006288219107E+01
  1.009307083764E+01  1.012335005016E+01  1.015372010031E+01  1.018418126061E+01
  1.021473380439E+01  1.024537800580E+01  1.027611413982E+01  1.030694248224E+01
  1.033786330969E+01  1.036887689962E+01  1.039998353032E+01  1.043118348091E+01
  1.046247703135E+01  1.049386446244E+01  1.052534605583E+01  1.055692209400E+01
  1.058859286028E+01  1.062035863886E+01  1.065221971478E+01  1.068417637392E+01
  1.071622890304E+01  1.074837758975E+01  1.078062272252E+01  1.081296459069E+01
  1.084540348446E+01  1.087793969492E+01  1.091057351400E+01  1.094330523454E+01
  1.097613515025E+01  1.100906355570E+01  1.104209074636E+01  1.107521701860E+01
  1.110844266966E+01  1.114176799767E+01  1.117519330166E+01  1.120871888157E+01
  1.124234503821E+01  1.127607207332E+01  1.130990028954E+01  1.134382999041E+01
  1.137786148038E+01  1.141199506483E+01  1.144623105002E+01  1.148056974317E+01
  1.151501145240E+01  1.154955648676E+01  1.158420515622E+01  1.161895777169E+01
  1.165381464500E+01  1.168877608894E+01  1.172384241720E+01  1.175901394445E+01
  1.179429098629E+01  1.182967385925E+01  1.186516288082E+01  1.190075836947E+01
  1.193646064457E+01  1.197227002651E+01  1.200818683659E+01  1.204421139710E+01
  1.208034403129E+01  1.211658506338E+01  1.215293481857E+01  1.218939362303E+01
  1.222596180390E+01  1.226263968931E+01  1.229942760838E+01  1.233632589120E+01
  1.237333486888E+01  1.241045487348E+01  1.244768623810E+01  1.248502929682E+01
  1.252248438471E+01  1.256005183786E+01  1.259773199338E+01  1.263552518936E+01
  1.267343176492E+01  1.271145206022E+01  1.274958641640E+01  1.278783517565E+01
  1.282619868118E+01  1.286467727722E+01  1.290327130905E+01  1.294198112298E+01
  1.298080706635E+01  1.301974948755E+01  1.305880873601E+01  1.309798516222E+01
  1.313727911770E+01  1.317669095506E+01  1.321622102792E+01  1.325586969101E+01
  1.329563730008E+01  1.333552421198E+01  1.337553078461E+01  1.341565737697E+01
  1.345590434910E+01  1.349627206215E+01  1.353676087833E+01  1.357737116097E+01
  1.361810327445E+01  1.365895758427E+01  1.369993445703E+01  1.374103426040E+01
  1.378225736318E+01  1.382360413527E+01  1.386507494767E+01  1.390667017252E+01
  1.394839018304E+01  1.399023535358E+01  1.403220605965E+01  1.407430267782E+01
  1.411652558586E+01  1.415887516262E+01  1.420135178810E+01  1.424395584347E+01
  1.428668771100E+01  1.432954777413E+01  1.437253641745E+01  1.441565402671E+01
  1.445890098879E+01  1.450227769175E+01  1.454578452483E+01  1.458942187840E+01
  1.463319014404E+01  1.467708971447E+01  1.472112098361E+01  1.476528434656E+01
  1.480958019960E+01  1.485400894020E+01  1.489857096702E+01  1.494326667992E+01
  1.498809647996E+01  1.503306076940E+01  1.507815995171E+01  1.512339443157E+01
  1.516876461486E+01  1.521427090871E+01  1.525991372143E+01  1.530569346260E+01
  1.535161054298E+01  1.539766537461E+01  1.544385837074E+01  1.549018994585E+01
  1.553666051569E+01  1.558327049723E+01  1.563002030872E+01  1.567691036965E+01
  1.572394110076E+01  1.577111292406E+01  1.581842626283E+01  1.586588154162E+01
  1.591347918625E+01  1.596121962381E+01  1.600910328268E+01  1.605713059253E+01
  1.610530198430E+01  1.615361789026E+01  1.620207874393E+01  1.625068498016E+01
  1.629943703510E+01  1.634833534620E+01  1.639738035224E+01  1.644657249330E+01
  1.649591221078E+01  1.654539994741E+01  1.659503614725E+01  1.664482125570E+01
  1.669475571946E+01  1.674483998662E+01  1.679507450658E+01  1.684545973010E+01
  1.689599610929E+01  1.694668409762E+01  1.699752414991E+01  1.704851672236E+01
  1.709966227253E+01  1.715096125935E+01  1.720241414313E+01  1.725402138555E+01
  1.730578344971E+01  1.735770080006E+01  1.740977390246E+01  1.746200322417E+01
  1.751438923384E+01  1.756693240154E+01  1.761963319875E+01  1.767249209834E+01
  1.772550957464E+01  1.777868610336E+01  1.783202216167E+01  1.788551822816E+01
  1.793917478284E+01  1.799299230719E+01  1.804697128411E+01  1.810111219796E+01
  1.815541553456E+01  1.820988178116E+01  1.826451142650E+01  1.831930496078E+01
  1.837426287567E+01  1.842938566429E+01  1.848467382129E+01  1.854012784275E+01
  1.859574822628E+01  1.865153547096E+01  1.870749007737E+01  1.876361254760E+01
  1.881990338525E+01  1.887636309540E+01  1.893299218469E+01  1.898979116124E+01
  1.904676053472E+01  1.910390081633E+01  1.916121251878E+01  1.921869615633E+01
  1.927635224480E+01  1.933418130154E+01  1.939218384544E+01  1.945036039698E+01
  1.950871147817E+01  1.956723761260E+01  1.962593932544E+01  1.968481714342E+01
  1.974387159485E+01  1.980310320963E+01  1.986251251926E+01  1.992210005682E+01
  1.998186635699E+01  2.004181195606E+01  2.010193739193E+01  2.016224320411E+01
  2.022272993372E+01  2.028339812352E+01  2.034424831789E+01  2.040528106284E+01
  2.046649690603E+01  2.052789639675E+01  2.058948008594E+01  2.065124852620E+01
  2.071320227178E+01  2.077534187859E+01  2.083766790423E+01  2.090018090794E+01
  2.096288145066E+01  2.102577009502E+01  2.108884740530E+01  2.115211394752E+01
  2.121557028936E+01  2.127921700023E+01  2.134305465123E+01  2.140708381518E+01
  2.147130506663E+01  2.153571898183E+01  2.160032613877E+01  2.166512711719E+01
  2.173012249854E+01  2.179531286604E+01  2.186069880463E+01  2.192628090105E+01
  2.199205974375E+01  2.205803592298E+01  2.212421003075E+01  2.219058266084E+01
  2.225715440883E+01  2.232392587205E+01  2.239089764967E+01  2.245807034262E+01
  2.252544455365E+01  2.259302088731E+01  2.266079994997E+01  2.272878234982E+01
  2.279696869687E+01  2.286535960296E+01  2.293395568177E+01  2.300275754881E+01
  2.307176582146E+01  2.314098111892E+01  2.321040406228E+01  2.328003527447E+01
  2.334987538029E+01  2.341992500643E+01  2.349018478145E+01  2.356065533579E+01
  2.363133730180E+01  2.370223131371E+01  2.377333800765E+01  2.384465802167E+01
  2.391619199574E+01  2.398794057172E+01  2.405990439344E+01  2.413208410662E+01
  2.420448035894E+01  2.427709380002E+01  2.434992508142E+01  2.442297485666E+01
  2.449624378123E+01  2.456973251257E+01  2.464344171011E+01  2.471737203524E+01
  2.479152415135E+01  2.486589872380E+01  2.494049641997E+01  2.501531790923E+01
  2.509036386296E+01  2.516563495455E+01  2.524113185941E+01  2.531685525499E+01
  2.539280582076E+01  2.546898423822E+01  2.554539119093E+01  2.562202736451E+01
  2.569889344660E+01  2.577599012694E+01  2.585331809732E+01  2.593087805161E+01
  2.600867068577E+01  2.608669669782E+01  2.616495678792E+01  2.624345165828E+01
  2.632218201326E+01  2.640114855930E+01  2.648035200497E+01  2.655979306099E+01
  2.663947244017E+01  2.671939085749E+01  2.679954903007E+01  2.687994767716E+01
  2.696058752019E+01  2.704146928275E+01  2.712259369060E+01  2.720396147167E+01
  2.728557335608E+01  2.736743007615E+01  2.744953236638E+01  2.753188096348E+01
  2.761447660637E+01  2.769732003619E+01  2.778041199630E+01  2.786375323229E+01
  2.794734449198E+01  2.803118652546E+01  2.811528008503E+01  2.819962592529E+01
  2.828422480307E+01  2.836907747747E+01  2.845418470991E+01  2.853954726404E+01
  2.862516590583E+01  2.871104140355E+01  2.879717452776E+01  2.888356605134E+01
  2.897021674949E+01  2.905712739974E+01  2.914429878194E+01  2.923173167829E+01
  2.931942687332E+01  2.940738515394E+01  2.949560730940E+01  2.958409413133E+01
  2.967284641373E+01  2.976186495297E+01  2.985115054783E+01  2.994070399947E+01
  3.003052611147E+01  3.012061768980E+01  3.021097954287E+01  3.030161248150E+01
  3.039251731895E+01  3.048369487090E+01  3.057514595552E+01  3.066687139338E+01
  3.075887200756E+01  3.085114862358E+01  3.094370206946E+01  3.103653317566E+01
  3.112964277519E+01  3.122303170352E+01  3.131670079863E+01  3.141065090102E+01
  3.150488285373E+01  3.159939750229E+01  3.169419569479E+01  3.178927828188E+01
  3.188464611672E+01  3.198030005507E+01  3.207624095524E+01  3.217246967810E+01
  3.226898708714E+01  3.236579404840E+01  3.246289143055E+01  3.256028010484E+01
  3.265796094515E+01  3.275593482799E+01  3.285420263247E+01  3.295276524037E+01
  3.305162353609E+01  3.315077840670E+01  3.325023074192E+01  3.334998143414E+01
  3.345003137845E+01  3.355038147258E+01  3.365103261700E+01  3.375198571485E+01
  3.385324167199E+01  3.395480139701E+01  3.405666580120E+01  3.415883579861E+01
  3.426131230600E+01  3.436409624292E+01  3.446718853165E+01  3.457059009724E+01
  3.467430186753E+01  3.477832477314E+01  3.488265974746E+01  3.498730772670E+01
  3.509226964988E+01  3.519754645883E+01  3.530313909821E+01  3.540904851550E+01
  3.551527566105E+01  3.562182148803E+01  3.572868695249E+01  3.583587301335E+01
  3.594338063239E+01  3.605121077429E+01  3.615936440661E+01  3.626784249983E+01
  3.637664602733E+01  3.648577596541E+01  3.659523329331E+01  3.670501899319E+01
  3.681513405017E+01  3.692557945232E+01  3.703635619068E+01  3.714746525925E+01
  3.725890765503E+01  3.737068437799E+01  3.748279643112E+01  3.759524482042E+01
  3.770803055488E+01  3.782115464654E+01  3.793461811048E+01  3.804842196481E+01
  3.816256723071E+01  3.827705493240E+01  3.839188609720E+01  3.850706175549E+01
  3.862258294076E+01  3.873845068958E+01  3.885466604165E+01  3.897123003977E+01
  3.908814372989E+01  3.920540816108E+01  3.932302438556E+01  3.944099345872E+01
  3.955931643910E+01  3.967799438841E+01  3.979702837158E+01  3.991641945669E+01
  4.003616871506E+01  4.015627722121E+01  4.027674605287E+01  4.039757629103E+01
  4.051876901991E+01  4.064032532697E+01  4.076224630295E+01  4.088453304185E+01
  4.100718664098E+01  4.113020820090E+01  4.125359882551E+01  4.137735962198E+01
  4.150149170085E+01  4.162599617595E+01  4.175087416448E+01  4.187612678697E+01
  4.200175516733E+01  4.212776043284E+01  4.225414371413E+01  4.238090614528E+01
  4.250804886371E+01  4.263557301030E+01  4.276347972933E+01  4.289177016852E+01
  4.302044547903E+01  4.314950681546E+01  4.327895533591E+01  4.340879220192E+01