<?xml version="1.0" encoding="UTF-8" ?>
<psml version="1.1" energy_unit="hartree" length_unit="bohr"
 uuid="54717520-7302-11e7-5aef-5641bfdecb3f"
 xmlns="http://esl.cecam.org/PSML/ns/1.1">
<provenance creator="ONCVPSP-3.3.0+psml-3.3.0-73 (fully-relativistic)"
 date="2017-07-27">
<annotation action="semilocal-pseudopotential-generation"
 action-cont="projectors-generation" />
<input-file name="oncvpsp-input">
<![CDATA[# ATOM AND REFERENCE CONFIGURATION
# atsym, z, nc, nv, iexc   psfile
    Bi  83.0  12   3 -101130   psp8
#
# n, l, f  (nc+nv lines)
    1    0    2.0
    2    0    2.0
    2    1    6.0
    3    0    2.0
    3    1    6.0
    3    2   10.0
    4    0    2.0
    4    1    6.0
    4    2   10.0
    4    3   14.0
    5    0    2.0
    5    1    6.0
    5    2   10.0
    6    0    2.0
    6    1    3.0
#
# PSEUDOPOTENTIAL AND OPTIMIZATION
# lmax
    3
#
# l, rc, ep, ncon, nbas, qcut  (lmax+1 lines, l's must be in order)
    0    3.00    0.00    4    7    4.00
    1    3.00    0.00    4    7    4.00
    2    2.50    0.00    4    8    6.00
    3    3.00    0.25    4    8    5.00
#
# LOCAL POTENTIAL
# lloc, lpopt, rc(5), dvloc0
    4    3    2.5    0.0
#
# VANDERBILT-KLEINMAN-BYLANDER PROJECTORs
# l, nproj, debl  (lmax+1 lines, l's in order)
    0    2    1.00
    1    2    1.00
    2    2    1.20
    3    2    1.00
#
# MODEL CORE CHARGE
# icmod, fcfact
    1    0.25
#
# LOG DERIVATIVE ANALYSIS
# epsh1, epsh2, depsh
   -2.0  3.0  0.02
#
# OUTPUT GRID
# rlmax, drl
    7.0  0.01
#
# TEST CONFIGURATIONS
# ncnf
    3
#
#   nvcnf (repeated ncnf times)
#   n, l, f  (nvcnf lines, repeated follwing nvcnf's ncnf times)
    3
    5    2   10.0
    6    0    1.0
    6    1    3.0
#
    3
    5    2   10.0
    6    0    2.0
    6    1    2.0
#
    3
    5    2   10.0
    6    0    1.0
    6    1    2.0
]]>
</input-file>
</provenance>
<pseudo-atom-spec atomic-label="Bi" atomic-number="83" z-pseudo="15"
 flavor="Hamann&apos;s oncvpsp" relativity="dirac" spin-dft="no"
 core-corrections="yes">
<annotation pseudo-energy="-68.8914441124" />
<exchange-correlation>
<annotation oncvpsp-xc-code="-101130" oncvpsp-xc-type="libxc-interface" />
<libxc-info number-of-functionals="2">
<functional name="Perdew, Burke &amp; Ernzerhof (GGA)" type="exchange" id="101" />
<functional name="Perdew, Burke &amp; Ernzerhof (GGA)" type="correlation"
 id="130" />
</libxc-info>
</exchange-correlation>
<valence-configuration total-valence-charge="15">
<shell n="5" l="d" occupation="10" />
<shell n="6" l="s" occupation="2" />
<shell n="6" l="p" occupation="3" />
</valence-configuration>
</pseudo-atom-spec>
<grid npts="457">
<annotation type="sampled from oncvpsp log grid"
 recipe="r(i:1..N) = r1*exp(a*(i-1)) + r=0; resampled"
 recipe-cont="r1: scale; a: step" scale="0.602409638554E-05"
 step="0.119285708653E-01" delta="0.500000000000E-02" rmax="44.0626872033" />
<grid-data>
  0.000000000000E+00  5.031540399417E-03  1.005010708672E-02  1.507676322460E-02
  2.031519180407E-02  2.548300647672E-02  3.084173950167E-02  3.601517482036E-02
  4.106493736582E-02  4.626752728992E-02  5.151110926994E-02  5.666892867097E-02
  6.234320173317E-02  6.777237261092E-02  7.280073515825E-02  7.820217642384E-02
  8.400437693564E-02  8.916706618068E-02  9.464704080075E-02  1.004638003250E-01
  1.066380426725E-01  1.118495432830E-01  1.173157347894E-01  1.230490641731E-01
  1.290625867116E-01  1.353699957055E-01  1.419856536601E-01  1.471587203454E-01
  1.525202611353E-01  1.580771428440E-01  1.638364824694E-01  1.698056563082E-01
  1.759923094030E-01  1.824043653339E-01  1.890500363665E-01  1.959378339698E-01
  2.030765797176E-01  2.104754165862E-01  2.155571350442E-01  2.207615465127E-01
  2.260916132918E-01  2.315503692031E-01  2.371409213171E-01  2.428664517214E-01
  2.487302193317E-01  2.547355617473E-01  2.608858971501E-01  2.671847262509E-01
  2.736356342815E-01  2.802422930356E-01  2.870084629587E-01  2.939379952883E-01
  3.010348342466E-01  3.083030192846E-01  3.157466873822E-01  3.233700754024E-01
  3.311775225029E-01  3.391734726062E-01  3.473624769288E-01  3.557491965718E-01
  3.643384051738E-01  3.731349916283E-01  3.821439628662E-01  3.913704467057E-01
  4.008196947709E-01  4.104970854815E-01  4.204081271133E-01  4.254530246387E-01
  4.305584609344E-01  4.357251624656E-01  4.409538644152E-01  4.462453107881E-01
  4.516002545176E-01  4.570194575718E-01  4.625036910627E-01  4.680537353554E-01
  4.736703801797E-01  4.793544247418E-01  4.851066778387E-01  4.909279579728E-01
  4.968190934685E-01  5.027809225901E-01  5.088142936612E-01  5.149200651851E-01
  5.210991059673E-01  5.273522952389E-01  5.336805227818E-01  5.400846890552E-01
  5.465657053239E-01  5.531244937877E-01  5.597619877132E-01  5.664791315658E-01
  5.732768811445E-01  5.801562037183E-01  5.871180781629E-01  5.941634951008E-01
  6.012934570421E-01  6.085089785266E-01  6.158110862689E-01  6.232008193041E-01
  6.306792291358E-01  6.382473798854E-01  6.459063484440E-01  6.536572246253E-01
  6.615011113208E-01  6.694391246567E-01  6.774723941526E-01  6.856020628824E-01
  6.938292876370E-01  7.021552390886E-01  7.105811019577E-01  7.191080751812E-01
  7.277373720834E-01  7.364702205484E-01  7.453078631950E-01  7.542515575533E-01
  7.633025762439E-01  7.724622071589E-01  7.817317536448E-01  7.911125346885E-01
  8.006058851048E-01  8.102131557260E-01  8.199357135947E-01  8.297749421579E-01
  8.397322414638E-01  8.498090283613E-01  8.600067367017E-01  8.703268175421E-01
  8.807707393526E-01  8.913399882248E-01  9.020360680835E-01  9.128605009005E-01
  9.238148269113E-01  9.349006048343E-01  9.461194120923E-01  9.574728450374E-01
  9.689625191778E-01  9.805900694080E-01  9.923571502409E-01  1.004265436044E+00
  1.016316621276E+00  1.028512420732E+00  1.040854569780E+00  1.053344824618E+00
  1.065984962513E+00  1.078776782063E+00  1.091722103448E+00  1.104822768689E+00
  1.118080641914E+00  1.131497609617E+00  1.145075580932E+00  1.158816487903E+00
  1.172722285758E+00  1.186794953187E+00  1.201036492625E+00  1.215448930537E+00
  1.230034317703E+00  1.244794729516E+00  1.259732266270E+00  1.274849053465E+00
  1.290147242107E+00  1.305629009012E+00  1.321296557120E+00  1.337152115806E+00
  1.353197941195E+00  1.369436316490E+00  1.385869552288E+00  1.402499986915E+00
  1.419329986758E+00  1.436361946599E+00  1.453598289958E+00  1.471041469438E+00
  1.488693967071E+00  1.506558294676E+00  1.524636994212E+00  1.542932638143E+00
  1.561447829800E+00  1.580185203758E+00  1.599147426203E+00  1.618337195317E+00
  1.637757241661E+00  1.657410328561E+00  1.677299252504E+00  1.697426843534E+00
  1.717795965656E+00  1.738409517244E+00  1.759270431451E+00  1.780381676629E+00
  1.801746256748E+00  1.823367211829E+00  1.845247618371E+00  1.867390589792E+00
  1.889799276869E+00  1.912476868191E+00  1.935426590610E+00  1.958651709697E+00
  1.982155530213E+00  2.005941396576E+00  2.030012693335E+00  2.054372845655E+00
  2.079025319803E+00  2.103973623640E+00  2.129221307124E+00  2.154771962810E+00
  2.180629226363E+00  2.206796777080E+00  2.233278338405E+00  2.260077678465E+00
  2.287198610607E+00  2.314644993934E+00  2.342420733862E+00  2.370529782668E+00
  2.398976140060E+00  2.427763853741E+00  2.456897019986E+00  2.486379784225E+00
  2.516216341636E+00  2.546410937736E+00  2.576967868988E+00  2.607891483416E+00
  2.639186181217E+00  2.670856415392E+00  2.702906692377E+00  2.735341572685E+00
  2.768165671557E+00  2.801383659616E+00  2.835000263531E+00  2.869020266694E+00
  2.903448509894E+00  2.938289892013E+00  2.973549370717E+00  3.009231963166E+00
  3.045342746724E+00  3.081886859684E+00  3.118869502001E+00  3.156295936025E+00
  3.194171487257E+00  3.232501545104E+00  3.271291563645E+00  3.310547062409E+00
  3.350273627158E+00  3.390476910684E+00  3.431162633612E+00  3.472336585215E+00
  3.514004624238E+00  3.556172679729E+00  3.598846751885E+00  3.642032912908E+00
  3.685737307863E+00  3.729966155557E+00  3.774725749424E+00  3.820022458417E+00
  3.865862727918E+00  3.912253080653E+00  3.959200117621E+00  4.006710519032E+00
  4.054791045261E+00  4.103448537804E+00  4.152689920258E+00  4.202522199301E+00
  4.252952465692E+00  4.303987895281E+00  4.355635750024E+00  4.407903379024E+00
  4.460798219573E+00  4.514327798207E+00  4.568499731786E+00  4.623321728567E+00
  4.678801589310E+00  4.734947208382E+00  4.791766574882E+00  4.849267773781E+00
  4.907458987066E+00  4.966348494911E+00  5.025944676850E+00  5.086256012972E+00
  5.147291085128E+00  5.209058578150E+00  5.271567281087E+00  5.334826088460E+00
  5.398844001522E+00  5.463630129540E+00  5.529193691095E+00  5.595544015388E+00
  5.662690543572E+00  5.730642830095E+00  5.799410544056E+00  5.869003470585E+00
  5.939431512232E+00  6.010704690379E+00  6.082833146664E+00  6.155827144423E+00
  6.229697070157E+00  6.304453434998E+00  6.380106876218E+00  6.456668158733E+00
  6.534148176638E+00  6.612557954757E+00  6.691908650215E+00  6.772211554017E+00
  6.853478092665E+00  6.935719829777E+00  7.018948467735E+00  7.103175849347E+00
  7.188413959540E+00  7.274674927054E+00  7.361971026179E+00  7.450314678493E+00
  7.539718454635E+00  7.630195076090E+00  7.721757417004E+00  7.814418506008E+00
  7.908191528080E+00  8.003089826417E+00  8.099126904334E+00  8.196316427186E+00
  8.294672224312E+00  8.394208291004E+00  8.494938790496E+00  8.596878055982E+00
  8.700040592653E+00  8.804441079765E+00  8.910094372722E+00  9.017015505195E+00
  9.125219691257E+00  9.234722327553E+00  9.345538995483E+00  9.457685463429E+00
  9.571177688990E+00  9.686031821258E+00  9.802264203113E+00  9.919891373550E+00
  1.003893007003E+01  1.015939723087E+01  1.028130999764E+01  1.040468571762E+01
  1.052954194623E+01  1.065589644958E+01  1.078376720698E+01  1.091317241346E+01
  1.104413048242E+01  1.117666004821E+01  1.131077996879E+01  1.144650932842E+01
  1.158386744036E+01  1.172287384964E+01  1.186354833584E+01  1.200591091587E+01
  1.214998184686E+01  1.229578162902E+01  1.244333100857E+01  1.259265098067E+01
  1.274376279244E+01  1.289668794595E+01  1.305144820130E+01  1.320806557971E+01
  1.336656236667E+01  1.352696111507E+01  1.368928464845E+01  1.385355606423E+01
  1.401979873700E+01  1.418803632185E+01  1.435829275771E+01  1.453059227080E+01
  1.470495937805E+01  1.488141889059E+01  1.505999591728E+01  1.524071586828E+01
  1.542360445870E+01  1.560868771221E+01  1.579599196475E+01  1.598554386833E+01
  1.617737039475E+01  1.637149883949E+01  1.656795682556E+01  1.676677230747E+01
  1.696797357516E+01  1.717158925806E+01  1.737764832916E+01  1.758618010911E+01
  1.779721427042E+01  1.801078084166E+01  1.822691021176E+01  1.844563313430E+01
  1.866698073191E+01  1.889098450070E+01  1.911767631470E+01  1.934708843048E+01
  1.957925349165E+01  1.981420453355E+01  2.005197498795E+01  2.029259868780E+01
  2.053610987206E+01  2.078254319052E+01  2.103193370881E+01  2.128431691331E+01
  2.153972871627E+01  2.179820546087E+01  2.205978392640E+01  2.232450133352E+01
  2.259239534952E+01  2.286350409371E+01  2.313786614284E+01  2.341552053655E+01
  2.369650678299E+01  2.398086486439E+01  2.426863524276E+01  2.455985886567E+01
  2.485457717206E+01  2.515283209812E+01  2.545466608330E+01  2.576012207630E+01
  2.606924354122E+01  2.638207446371E+01  2.669865935728E+01  2.701904326956E+01
  2.734327178880E+01  2.767139105026E+01  2.800344774287E+01  2.833948911578E+01
  2.867956298517E+01  2.902371774099E+01  2.937200235389E+01  2.972446638213E+01
  3.008115997872E+01  3.044213389846E+01  3.080743950524E+01  3.117712877931E+01
  3.155125432466E+01  3.192986937655E+01  3.231302780907E+01  3.270078414278E+01
  3.309319355250E+01  3.349031187513E+01  3.389219561763E+01  3.429890196504E+01
  3.471048878862E+01  3.512701465408E+01  3.554853882993E+01  3.597512129589E+01
  3.640682275144E+01  3.684370462446E+01  3.728582907995E+01  3.773325902891E+01
  3.818605813726E+01  3.864429083490E+01  3.910802232492E+01  3.957731859282E+01
  4.005224641594E+01  4.053287337293E+01  4.101926785340E+01  4.151149906764E+01
  4.200963705646E+01  4.251375270113E+01  4.302391773355E+01  4.354020474635E+01
  4.406268720331E+01
</grid-data>
</grid>
<valence-charge total-charge="15" is-unscreening-charge="yes"
 rescaled-to-z-pseudo="no">
<radfunc>
<data npts="457">
  1.075107851432E-01  1.075196047703E-01  1.075464542233E-01  1.075928664430E-01
  1.076646320292E-01  1.077625296267E-01  1.078975846010E-01  1.080663958773E-01
  1.082742706287E-01  1.085408483468E-01  1.088725321699E-01  1.092705787035E-01
  1.098038459752E-01  1.104218282205E-01  1.111014933243E-01  1.119616252236E-01
  1.130546540157E-01  1.141921856512E-01  1.155890138714E-01  1.173081414884E-01
  1.194283031553E-01  1.214785156812E-01  1.239093060275E-01  1.267940396333E-01
  1.302203218336E-01  1.342927058062E-01  1.391358879989E-01  1.433624843928E-01
  1.481785782488E-01  1.536672250340E-01  1.599229657711E-01  1.670533323407E-01
  1.751805278322E-01  1.844432966251E-01  1.949989985646E-01  2.070259007281E-01
  2.207256986733E-01  2.363262765182E-01  2.479083044851E-01  2.605327536938E-01
  2.742905230775E-01  2.892798444354E-01  3.056067759057E-01  3.233857126161E-01
  3.427399121471E-01  3.638020317425E-01  3.867146733882E-01  4.116309319486E-01
  4.387149404738E-01  4.681424055768E-01  5.001011243929E-01  5.347914730852E-01
  5.724268551118E-01  6.132340955401E-01  6.574537655493E-01  7.053404189095E-01
  7.571627196662E-01  8.132034374865E-01  8.737592841539E-01  9.391405615516E-01
  1.009670588177E+00  1.085684867822E+00  1.167529960592E+00  1.255562013005E+00
  1.350144900595E+00  1.451647933356E+00  1.560443071675E+00  1.617691335800E+00
  1.676901598291E+00  1.738119519359E+00  1.801390190446E+00  1.866757974733E+00
  1.934266336119E+00  2.003957656252E+00  2.075873039230E+00  2.150052103613E+00
  2.226532761396E+00  2.305350983652E+00  2.386540552570E+00  2.470132799675E+00
  2.556156330063E+00  2.644636732534E+00  2.735596275600E+00  2.829053589394E+00
  2.925023333592E+00  3.023515851596E+00  3.124536811256E+00  3.228086832606E+00
  3.334161103146E+00  3.442748981383E+00  3.553833589469E+00  3.667391395949E+00
  3.783391789785E+00  3.901796647021E+00  4.022559891655E+00  4.145627052460E+00
  4.270934817755E+00  4.398410590323E+00  4.527972044939E+00  4.659526691192E+00
  4.792971444579E+00  4.928192209069E+00  5.065063474646E+00  5.203447933589E+00
  5.343196119528E+00  5.484146073580E+00  5.626123042157E+00  5.768939211279E+00
  5.912393482478E+00  6.056271295625E+00  6.200344504211E+00  6.344371308808E+00
  6.488096254599E+00  6.631250298980E+00  6.773550955333E+00  6.914702519071E+00
  7.054396382084E+00  7.192311441568E+00  7.328114609124E+00  7.461461425748E+00
  7.591996788019E+00  7.719355790422E+00  7.843164688193E+00  7.963041984504E+00
  8.078599645076E+00  8.189444442470E+00  8.295179431378E+00  8.395405555132E+00
  8.489723382475E+00  8.577734972315E+00  8.659045862716E+00  8.733267178857E+00
  8.800017852966E+00  8.858926947507E+00  8.909636070986E+00  8.951801873820E+00
  8.985098609709E+00  9.009220745880E+00  9.023885603562E+00  9.028836007977E+00
  9.023842925169E+00  9.008708061062E+00  8.983266396409E+00  8.947388629620E+00
  8.900983498100E+00  8.843999947574E+00  8.776429118001E+00  8.698306114245E+00
  8.609711529515E+00  8.510772690001E+00  8.401664589912E+00  8.282610487548E+00
  8.153882134901E+00  8.015799615857E+00  7.868730771108E+00  7.713090191673E+00
  7.549337767205E+00  7.377976780181E+00  7.199551542552E+00  7.014644577372E+00
  6.823873354360E+00  6.627886595106E+00  6.427360170666E+00  6.222992621482E+00
  6.015500336778E+00  5.805612437633E+00  5.594065414783E+00  5.381597578548E+00
  5.168943384047E+00  4.956827699862E+00  4.745960092335E+00  4.537029200650E+00
  4.330697279509E+00  4.127594986566E+00  3.928316490576E+00  3.733414973552E+00
  3.543398595862E+00  3.358726987348E+00  3.179808320063E+00  3.006997009357E+00
  2.840592079775E+00  2.680836220876E+00  2.527915545800E+00  2.381960052459E+00
  2.243044773966E+00  2.111191591627E+00  1.986371670898E+00  1.868508468484E+00
  1.757481247653E+00  1.653129029107E+00  1.555254896832E+00  1.463630572434E+00
  1.378001167823E+00  1.298090024847E+00  1.223603551738E+00  1.154235969919E+00
  1.089673890770E+00  1.029600650122E+00  9.737003382231E-01  9.216614743533E-01
  8.731802875360E-01  8.279635775734E-01  7.857311431478E-01  7.462177755618E-01
  7.091748272302E-01  6.743713728609E-01  6.415949880225E-01  6.106521742952E-01
  5.813684624304E-01  5.535882250819E-01  5.271742290861E-01  5.020069545266E-01
  4.779837046024E-01  4.550175274053E-01  4.330359688511E-01  4.119796758564E-01
  3.918008708200E-01  3.724613543320E-01  3.539291023794E-01  3.361746949372E-01
  3.191705519694E-01  3.028910781213E-01  2.873121408733E-01  2.724108220191E-01
  2.581651515594E-01  2.445538682611E-01  2.315562054864E-01  2.191517040028E-01
  2.073200531890E-01  1.960409616778E-01  1.852940580979E-01  1.750588221926E-01
  1.653146212599E-01  1.560410749755E-01  1.472185942788E-01  1.388283944711E-01
  1.308523993157E-01  1.232732299984E-01  1.160741665782E-01  1.092391167317E-01
  1.027525864972E-01  9.659965325209E-02  9.076594075077E-02  8.523759605451E-02
  8.000126818744E-02  7.504408836897E-02  7.035365168005E-02  6.591800003086E-02
  6.172560630772E-02  5.776535958608E-02  5.402655130616E-02  5.049886231614E-02
  4.717235069632E-02  4.403744028440E-02  4.108490983406E-02  3.830588273154E-02
  3.569181722110E-02  3.323449707875E-02  3.092602268543E-02  2.875880245360E-02
  2.672554456525E-02  2.481924898225E-02  2.303319969354E-02  2.136095716626E-02
  1.979635097103E-02  1.833347255400E-02  1.696666813145E-02  1.569053168499E-02
  1.449989803860E-02  1.338983600137E-02  1.235564156237E-02  1.139283112749E-02
  1.049713479003E-02  9.664489630357E-03  8.891033041759E-03  8.173096082545E-03
  7.507196856450E-03  6.890033925431E-03  6.318479760750E-03  5.789574239709E-03
  5.300518196644E-03  4.848667037757E-03  4.431524430039E-03  4.046736074969E-03
  3.692083577855E-03  3.365478423616E-03  3.064956069565E-03  2.788670165277E-03
  2.534886909019E-03  2.301979549477E-03  2.088423040625E-03  1.892788856632E-03
  1.713739972676E-03  1.550026016436E-03  1.400478593963E-03  1.264006792483E-03
  1.139592861625E-03  1.026288073472E-03  9.232087608328E-04  8.295325321520E-04
  7.444946606266E-04  6.673846442565E-04  5.975429328864E-04  5.343578176796E-04
  4.772624779706E-04  4.257321800537E-04  3.792816221810E-04  3.374624198576E-04
  2.998607254332E-04  2.660949759821E-04  2.358137635377E-04  2.086938218761E-04
  1.844381242314E-04  1.627740865478E-04  1.434518711223E-04  1.262427857609E-04
  1.109377738415E-04  9.734599094737E-05  8.529346399506E-05  7.462182902721E-05
  6.518714406541E-05  5.685877362478E-05  4.951834167414E-05  4.305874998571E-05
  3.738325895694E-05  3.240462810560E-05  2.804431353978E-05  2.423171979005E-05
  2.090350346340E-05  1.800292624151E-05  1.547925480065E-05  1.328720528125E-05
  1.138642998200E-05  9.741043999942E-06  8.319189585023E-06  7.092636026178E-06
  6.036412937698E-06  5.128474869604E-06  4.349395224467E-06  3.682087525846E-06
  3.111552150033E-06  2.624646702949E-06  2.209878297436E-06  1.857216062330E-06
  1.557922293091E-06  1.304400733721E-06  1.090060560721E-06  9.091947211990E-07
  7.568713584220E-07  6.288371385067E-07  5.214313710388E-07  4.315098937552E-07
  3.563777665593E-07  2.937298927398E-07  2.415987550033E-07  1.983085205869E-07
  1.624348330826E-07  1.327696685668E-07  1.082906900935E-07  8.813458753550E-08
  7.157393916789E-08  5.799717729634E-08  4.689128273257E-08  3.782687209308E-08
  3.044537787112E-08  2.444805413925E-08  1.958657073158E-08  1.565498598835E-08
  1.248291278839E-08  9.929714813094E-09  7.879589951365E-09  6.237415632766E-09
  4.925246833630E-09  3.879371694968E-09  3.047842276634E-09  2.388409094828E-09
  1.866797888276E-09  1.455275662498E-09  1.131460592983E-09  8.773369397266E-10
  6.784418418488E-10  5.231958174734E-10  4.023530784237E-10  3.085514610064E-10
  2.359449453337E-10  1.799044511073E-10  1.367749157901E-10  1.036786335674E-10
  7.835650669619E-11  5.904027566355E-11  4.434998714705E-11  3.321196078785E-11
  2.479335501252E-11  1.845013275122E-11  1.368581089922E-11  1.011886091742E-11
  7.457027710868E-12  5.477163295047E-12  4.009442239515E-12  2.925047250596E-12
  2.126593820373E-12  1.540709645838E-12  1.112303420757E-12  8.001535825143E-13
  5.735248021630E-13  4.095818893516E-13  2.914202076218E-13  2.065710250910E-13
  1.458714077105E-13  1.026128932455E-13  7.190256738117E-14  5.018535919390E-14
  3.488824065663E-14  2.415624703104E-14  1.665738899747E-14  1.143904904635E-14
  7.822699385403E-15  5.327028495802E-15  3.612041472054E-15  2.438580902238E-15
  1.639137828716E-15  1.096893599991E-15  7.307365659063E-16  4.845970768955E-16
  3.198897878995E-16  2.101819102799E-16  1.374488516628E-16  8.945670049742E-17
  5.794093190621E-17  3.734508729141E-17  2.395141321908E-17  1.528454169841E-17
  9.704450542184E-18  6.127977126916E-18  3.850903088388E-18  2.407261533722E-18
  1.496826915692E-18  9.257197637930E-19  5.694017075155E-19  3.483056152134E-19
  2.118728846606E-19  1.281544202094E-19  7.707338723488E-20  4.608464877527E-20
  2.739402009499E-20  0.000000000000E+00  0.000000000000E+00  0.000000000000E+00
  0.000000000000E+00  0.000000000000E+00  0.000000000000E+00  0.000000000000E+00
  0.000000000000E+00  0.000000000000E+00  0.000000000000E+00  0.000000000000E+00
  0.000000000000E+00
</data>
</radfunc>
</valence-charge>
<pseudocore-charge matching-radius="1.38586955229"
 number-of-continuous-derivatives="4">
<annotation model-charge-form="Polynomial" />
<radfunc>
<data npts="303">
  3.694165222320E+01  3.694165211984E+01  3.694165038411E+01  3.694164263467E+01
  3.694162028833E+01  3.694157295958E+01  3.694148236578E+01  3.694133741714E+01
  3.694112248571E+01  3.694080317675E+01  3.694035565063E+01  3.693976512948E+01
  3.693890844987E+01  3.693784861269E+01  3.693662332931E+01  3.693500795959E+01
  3.693288019690E+01  3.693060168513E+01  3.692773938885E+01  3.692414642468E+01
  3.691963986391E+01  3.691522569402E+01  3.690994098840E+01  3.690361789940E+01
  3.689605723041E+01  3.688702285092E+01  3.687623518955E+01  3.686679714848E+01
  3.685602708895E+01  3.684374270517E+01  3.682973783833E+01  3.681377956966E+01
  3.679560500164E+01  3.677491770269E+01  3.675138379039E+01  3.672462762927E+01
  3.669422712003E+01  3.665970855963E+01  3.663414874322E+01  3.660635137654E+01
  3.657613047721E+01  3.654328584516E+01  3.650760213420E+01  3.646884788382E+01
  3.642677451305E+01  3.638111527814E+01  3.633158419698E+01  3.627787494406E+01
  3.621965972024E+01  3.615658810340E+01  3.608828588664E+01  3.601435391252E+01
  3.593436691310E+01  3.584787236758E+01  3.575438939096E+01  3.565340766955E+01
  3.554438646136E+01  3.542675368216E+01  3.529990510066E+01  3.516320366945E+01
  3.501597902173E+01  3.485752716730E+01  3.468711042532E+01  3.450395763504E+01
  3.430726469060E+01  3.409619544962E+01  3.386988307083E+01  3.375073186085E+01
  3.362743183965E+01  3.349986692141E+01  3.336791954640E+01  3.323147079035E+01
  3.309040048531E+01  3.294458735252E+01  3.279390914790E+01  3.263824282097E+01
  3.247746468756E+01  3.231145061730E+01  3.214007623624E+01  3.196321714553E+01
  3.178074915665E+01  3.159254854398E+01  3.139849231533E+01  3.119845850106E+01
  3.099232646252E+01  3.077997722040E+01  3.056129380357E+01  3.033616161908E+01
  3.010446884374E+01  2.986610683802E+01  2.962097058242E+01  2.936895913702E+01
  2.910997612440E+01  2.884393023618E+01  2.857073576352E+01  2.829031315147E+01
  2.800258957737E+01  2.770749955299E+01  2.740498555027E+01  2.709499865019E+01
  2.677749921418E+01  2.645245757738E+01  2.611985476274E+01  2.577968321478E+01
  2.543194755172E+01  2.507666533410E+01  2.471386784817E+01  2.434360090172E+01
  2.396592562966E+01  2.358091930670E+01  2.318867616353E+01  2.278930820308E+01
  2.238294601249E+01  2.196973956645E+01  2.154985901661E+01  2.112349546172E+01
  2.069086169220E+01  2.025219290265E+01  1.980774736484E+01  1.935780705364E+01
  1.890267821702E+01  1.844269188131E+01  1.797820428178E+01  1.750959720809E+01
  1.703727825355E+01  1.656168095633E+01  1.608326482020E+01  1.560251520171E+01
  1.511994305013E+01  1.463608448591E+01  1.415150020294E+01  1.366677467941E+01
  1.318251518190E+01  1.269935054701E+01  1.221792972480E+01  1.173892006867E+01
  1.126300535637E+01  1.079088352769E+01  1.032326412536E+01  9.860865426753E+00
  9.404411255969E+00  8.954627468043E+00  8.512238099754E+00  8.077961185044E+00
  7.652504237286E+00  7.236559405700E+00  6.830798319334E+00  6.435866639260E+00
  6.052378348154E+00  5.680909816441E+00  5.321993695854E+00  4.976112704838E+00
  4.643693385924E+00  4.325099933352E+00  4.020628210065E+00  3.730500097154E+00
  3.454858346211E+00  3.193762136346E+00  2.947183573270E+00  2.715005408387E+00
  2.497020301878E+00  2.292932005917E+00  2.102358903206E+00  1.924840402723E+00
  1.759846769862E+00  1.606793052984E+00  1.465057863903E+00  1.334007587315E+00
  1.213019378544E+00  1.101489256810E+00  9.988333928964E-01  9.044889563115E-01
  8.179147930686E-01  7.385919393001E-01  6.660239775071E-01  5.997372435467E-01
  5.392808934923E-01  4.842268402955E-01  4.341695707292E-01  3.887258534550E-01
  3.475343492291E-01  3.102551342690E-01  2.765691476697E-01  2.461775735041E-01
  2.188011678799E-01  1.941795407811E-01  1.720704020055E-01  1.522487799430E-01
  1.345062213274E-01  1.186499794629E-01  1.045021977726E-01  9.189909486441E-02
  8.069015665337E-02  7.073734044585E-02  6.191429526379E-02  5.410560209330E-02
  4.720603717083E-02  4.111986088291E-02  3.576013435248E-02  3.104806531756E-02
  2.691238447951E-02  2.328875310632E-02  2.011920232380E-02  1.735160421199E-02
  1.493917454512E-02  1.284000677039E-02  1.101663661064E-02  9.435636498650E-03
  8.067238902596E-03  6.884987482181E-03  5.865414920394E-03  4.987746204468E-03
  4.233626079338E-03  3.586869365454E-03  3.033232817940E-03  2.560207203872E-03
  2.156828286796E-03  1.813505430768E-03  1.521866568350E-03  1.274618316638E-03
  1.065420070993E-03  8.887709564378E-04  7.399085704218E-04  6.147185068229E-04
  5.096537086880E-04  4.216627554960E-04  3.481262489568E-04  2.868005189240E-04
  2.357679273876E-04  1.933931033085E-04  1.582844939129E-04  1.292606687245E-04
  1.053208608545E-04  8.561927577037E-05  6.944274081506E-05  5.619130910745E-05
  4.536146911153E-05  3.653164613750E-05  2.934971438419E-05  2.352226792232E-05
  1.880542634224E-05  1.499697575578E-05  1.192966856413E-05  9.465526008416E-06
  7.491006134460E-06  5.912916560397E-06  4.654966466951E-06  3.654865665887E-06
  2.861890569969E-06  2.234847511560E-06  1.740373255367E-06  1.351520837065E-06
  1.046586140374E-06  8.081370011540E-07  6.222121919258E-07  4.776624806817E-07
  3.656101542605E-07  2.790070222358E-07  2.122740394022E-07  1.610083643542E-07
  1.217459633642E-07  9.176982222010E-08  6.895548813374E-08  5.164706870853E-08
  3.855800020765E-08  2.869189387908E-08  2.127960399731E-08  1.572935833601E-08
  1.158737169428E-08  8.506843832957E-09  6.223640268244E-09  4.537281184915E-09
  3.296131725736E-09  2.385905867963E-09  1.720774324227E-09  1.236511416720E-09
  8.852326419366E-10  6.313686344978E-10  4.485964423565E-10  3.175093339168E-10
  2.238543304613E-10  1.572037518796E-10  1.099576264339E-10  7.660061629224E-11
  5.314614620596E-11  3.672117644813E-11  2.526650491601E-11  1.731153914784E-11
  1.181043623360E-11  8.022568318524E-12  5.425693826289E-12  3.653156877030E-12
  2.448662965359E-12  1.633854903505E-12  1.085169396151E-12  7.173921640223E-13
  4.720259652827E-13  3.091007924783E-13  2.014344702776E-13  1.306294374760E-13
  8.429382231411E-14  5.412169360034E-14  3.457332524033E-14
</data>
</radfunc>
</pseudocore-charge>
<semilocal-potentials set="scalar_relativistic">
<slps n="6" l="s" rc="3.00923196317">
<radfunc>
<data npts="303">
 -5.895071001294E+00 -5.895315497665E+00 -5.896046346680E+00 -5.897265580618E+00
 -5.899054437756E+00 -5.901336645737E+00 -5.904244790894E+00 -5.907574177806E+00
 -5.911316831063E+00 -5.915680165276E+00 -5.920596842871E+00 -5.925939063147E+00
 -5.932392824813E+00 -5.939130037275E+00 -5.945857184899E+00 -5.953601985673E+00
 -5.962515250875E+00 -5.970959027488E+00 -5.980445551754E+00 -5.991099744259E+00
 -6.003060460836E+00 -6.013672720724E+00 -6.025305880828E+00 -6.038053587276E+00
 -6.052017129399E+00 -6.067305864685E+00 -6.084037622734E+00 -6.097609284096E+00
 -6.112120519900E+00 -6.127631102712E+00 -6.144203815819E+00 -6.161904482365E+00
 -6.180801972375E+00 -6.200968183500E+00 -6.222477990860E+00 -6.245409160863E+00
 -6.269842223399E+00 -6.295860296320E+00 -6.314128361269E+00 -6.333164672492E+00
 -6.352995444433E+00 -6.373647203226E+00 -6.395146727562E+00 -6.417520982131E+00
 -6.440797043143E+00 -6.465002015449E+00 -6.490162940771E+00 -6.516306696548E+00
 -6.543459884934E+00 -6.571648711456E+00 -6.600898852913E+00 -6.631235314062E+00
 -6.662682272709E+00 -6.695262912830E+00 -6.728999245409E+00 -6.763911916708E+00
 -6.800020003746E+00 -6.837340796821E+00 -6.875889568985E+00 -6.915679332425E+00
 -6.956720581806E+00 -6.999021024700E+00 -7.042585299310E+00 -7.087414679779E+00
 -7.133506769487E+00 -7.180855182796E+00 -7.229449215840E+00 -7.254208730691E+00
 -7.279273507035E+00 -7.304640839647E+00 -7.330307688093E+00 -7.356270665371E+00
 -7.382526026441E+00 -7.409069656651E+00 -7.435897060082E+00 -7.463003347802E+00
 -7.490383226063E+00 -7.518030984433E+00 -7.545940483894E+00 -7.574105144906E+00
 -7.602517935463E+00 -7.631171359151E+00 -7.660057443234E+00 -7.689167726777E+00
 -7.718493248843E+00 -7.748024536772E+00 -7.777751594586E+00 -7.807663891530E+00
 -7.837750350803E+00 -7.867999338496E+00 -7.898398652790E+00 -7.928935513450E+00
 -7.959596551665E+00 -7.990367800301E+00 -8.021234684596E+00 -8.052182013400E+00