<?xml version="1.0" encoding="UTF-8" ?>
<psml version="1.2" energy_unit="hartree" length_unit="bohr"
 uuid="9a938510-0b90-11ef-6085-e6d36ddc9cfb"
 xmlns="http://esl.cecam.org/PSML/ns/1.1">
<provenance creator="METAPSP-1.0.0+psml-4.0.1-81 (non-relativistic)"
 date="2024-05-06">
<annotation action="projectors-generation" />
<input-file name="oncvpsp-input">
<![CDATA[# ATOM AND REFERENCE CONFIGURATION
# atsym  z   nc   nv     iexc    psfile
  Nd 60.00   10    4       5      psml
#
#   n    l    f
    1    0    2.00
    2    0    2.00
    2    1    6.00
    3    0    2.00
    3    1    6.00
    3    2   10.00
    4    0    2.00
    4    1    6.00
    4    2   10.00
    4    3    3.00
    5    0    2.00
    5    1    6.00
    5    2    1.00
    6    0    2.00
#
# PSEUDOPOTENTIAL AND OPTIMIZATION
# lmax
    3
#
#   l,   rc,      ep,       ncon, nbas, qcut
    0   2.10000   0.00000    4    8   5.40000
    1   1.90000   0.00000    4    8   6.60000
    2   1.90000   0.00000    4    9   6.60000
    3   2.60000   0.75000    4    9   6.30000
#
# LOCAL POTENTIAL
# lloc, lpopt,  rc(5),   dvloc0
    4    5   1.90000      0.00000
#
# VANDERBILT-KLEINMAN-BYLANDER PROJECTORs
# l, nproj, debl
    0    2   1.00000
    1    2   4.00000
    2    2   4.00000
    3    2   2.00000
#
# MODEL CORE CHARGE
# icmod, fcfact, rcfact
    5   3.00000   0.50000
#
# LOG DERIVATIVE ANALYSIS
# epsh1, epsh2, depsh
   -3.00    5.00    0.02
#
# OUTPUT GRID
# rlmax, drl
    6.00    0.01
#
# TEST CONFIGURATIONS
# ncnf
    0
# nvcnf
#   n    l    f
]]>
</input-file>
</provenance>
<pseudo-atom-spec atomic-label="Nd" atomic-number="60" z-pseudo="11"
 flavor="Hamann`s oncvpsp" relativity="no" spin-dft="no" core-corrections="yes"
 meta-gga="yes">
<annotation pseudo-energy="-16.3155615915" cutoff_hint_low="24"
 cutoff_hint_normal="30" cutoff_hint_high="43" />
<exchange-correlation>
<annotation oncvpsp-xc-code="5" oncvpsp-xc-type="METAGGA -- Perdew" />
<libxc-info number-of-functionals="2">
<functional name="R2SCAN01 (MGGA)" type="exchange" id="645" />
<functional name="R2SCAN01 (MGGA)" type="correlation" id="642" />
</libxc-info>
</exchange-correlation>
<valence-configuration total-valence-charge="11">
<shell n="5" l="s" occupation="2" />
<shell n="5" l="p" occupation="6" />
<shell n="5" l="d" occupation="1" />
<shell n="6" l="s" occupation="2" />
</valence-configuration>
</pseudo-atom-spec>
<grid npts="1363">
<annotation type="sampled from oncvpsp log grid"
 recipe="r(i:1..N) = r1*exp(a*(i-1)) + r=0; resampled"
 recipe-cont="r1: scale; a: step" scale="0.833333333333E-05"
 step="0.299550897980E-02" delta="0.500000000000E-02" rmax="44.8586502107" />
<grid-data>
  0.000000000000E+00  5.007393088560E-03  1.003293841199E-02  1.503329237977E-02
  2.004212073493E-02  2.509075042353E-02  3.012108175015E-02  3.519808873807E-02
  4.027736658599E-02  4.540444679144E-02  5.042327436761E-02  5.549590026059E-02
  6.053240910295E-02  6.563162391817E-02  7.073534492579E-02  7.578058177696E-02
  8.094284435056E-02  8.619817182135E-02  9.124640911208E-02  9.630139465792E-02
  1.013324254968E-01  1.066262902374E-01  1.118611365844E-01  1.170019831688E-01
  1.220130505255E-01  1.272387364327E-01  1.322913586931E-01  1.375446194730E-01
  1.425787498344E-01  1.477971292679E-01  1.532065012857E-01  1.583388396937E-01
  1.636431087790E-01  1.691250681302E-01  1.742678666791E-01  1.795670487684E-01
  1.850273697489E-01  1.900834791361E-01  1.952777531751E-01  2.006139673918E-01
  2.060960004829E-01  2.117278371356E-01  2.168629819777E-01  2.221226721460E-01
  2.275099283028E-01  2.330278443721E-01  2.386795893164E-01  2.437371973645E-01
  2.489019758634E-01  2.541761957492E-01  2.595621760793E-01  2.650622850517E-01
  2.706789410463E-01  2.764146136885E-01  2.814275423079E-01  2.865313831009E-01
  2.917277848089E-01  2.970184260743E-01  3.024050159824E-01  3.078892946138E-01
  3.134730336064E-01  3.191580367276E-01  3.249461404573E-01  3.308392145806E-01
  3.368391627927E-01  3.419221568423E-01  3.470818546466E-01  3.523194136860E-01
  3.576360089075E-01  3.630328329886E-01  3.685110966044E-01  3.740720286995E-01
  3.797168767636E-01  3.854469071114E-01  3.912634051665E-01  3.971676757502E-01
  4.031610433735E-01  4.092448525348E-01  4.154204680215E-01  4.204279912421E-01
  4.254958756888E-01  4.306248489624E-01  4.358156474342E-01  4.410690163517E-01
  4.463857099460E-01  4.517664915395E-01  4.572121336559E-01  4.627234181309E-01
  4.683011362247E-01  4.739460887352E-01  4.796590861134E-01  4.854409485794E-01
  4.912925062406E-01  4.972145992102E-01  5.032080777285E-01  5.092738022847E-01
  5.154126437402E-01  5.216254834542E-01  5.279132134095E-01  5.342767363414E-01
  5.407169658664E-01  5.472348266142E-01  5.538312543599E-01  5.605071961586E-01
  5.655669097520E-01  5.706722975166E-01  5.758237717544E-01  5.810217484893E-01
  5.862666475005E-01  5.915588923567E-01  5.968989104501E-01  6.022871330310E-01
  6.077239952426E-01  6.132099361562E-01  6.187453988066E-01  6.243308302277E-01
  6.299666814891E-01  6.356534077320E-01  6.413914682063E-01  6.471813263073E-01
  6.530234496138E-01  6.589183099251E-01  6.648663832996E-01  6.708681500930E-01
  6.769240949974E-01  6.830347070799E-01  6.892004798226E-01  6.954219111624E-01
  7.016995035308E-01  7.080337638951E-01  7.144252037987E-01  7.208743394028E-01
  7.273816915282E-01  7.339477856970E-01  7.405731521751E-01  7.472583260152E-01
  7.540038471001E-01  7.608102601860E-01  7.676781149466E-01  7.746079660175E-01
  7.816003730412E-01  7.886559007118E-01  7.957751188213E-01  8.029586023048E-01
  8.102069312877E-01  8.175206911320E-01  8.249004724839E-01  8.323468713213E-01
  8.373484436711E-01  8.423800704691E-01  8.474419323126E-01  8.525342108838E-01
  8.576570889570E-01  8.628107504046E-01  8.679953802037E-01  8.732111644434E-01
  8.784582903305E-01  8.837369461971E-01  8.890473215068E-01  8.943896068618E-01
  8.997639940094E-01  9.051706758494E-01  9.106098464406E-01  9.160817010078E-01
  9.215864359492E-01  9.271242488428E-01  9.326953384541E-01  9.382999047429E-01
  9.439381488705E-01  9.496102732070E-01  9.553164813387E-01  9.610569780751E-01
  9.668319694564E-01  9.726416627608E-01  9.784862665123E-01  9.843659904878E-01
  9.902810457247E-01  9.962316445284E-01  1.002218000480E+00  1.008240328445E+00
  1.014298844579E+00  1.020393766336E+00  1.026525312478E+00  1.032693703081E+00
  1.038899159542E+00  1.045141904592E+00  1.051422162297E+00  1.057740158070E+00
  1.064096118680E+00  1.070490272257E+00  1.076922848303E+00  1.083394077698E+00
  1.089904192711E+00  1.096453427005E+00  1.103042015648E+00  1.109670195120E+00
  1.116338203323E+00  1.123046279586E+00  1.129794664681E+00  1.136583600821E+00
  1.143413331678E+00  1.150284102388E+00  1.157196159559E+00  1.164149751282E+00
  1.171145127137E+00  1.178182538206E+00  1.185262237079E+00  1.192384477861E+00
  1.199549516189E+00  1.206757609231E+00  1.214009015705E+00  1.221303995881E+00
  1.228642811592E+00  1.236025726247E+00  1.243453004836E+00  1.250924913942E+00
  1.258441721750E+00  1.266003698056E+00  1.273611114277E+00  1.281264243463E+00
  1.288963360302E+00  1.296708741134E+00  1.304500663959E+00  1.312339408449E+00
  1.320225255955E+00  1.328158489518E+00  1.336139393881E+00  1.344168255499E+00
  1.352245362546E+00  1.360371004930E+00  1.368545474298E+00  1.376769064053E+00
  1.385042069359E+00  1.393364787154E+00  1.401737516160E+00  1.410160556895E+00
  1.418634211681E+00  1.427158784659E+00  1.435734581796E+00  1.444361910898E+00
  1.453041081621E+00  1.461772405480E+00  1.470556195865E+00  1.479392768046E+00
  1.488282439189E+00  1.497225528366E+00  1.506222356566E+00  1.515273246706E+00
  1.524378523646E+00  1.533538514195E+00  1.542753547126E+00  1.552023953191E+00
  1.561350065126E+00  1.570732217667E+00  1.580170747563E+00  1.589665993585E+00
  1.599218296541E+00  1.608827999285E+00  1.618495446732E+00  1.628220985872E+00
  1.638004965776E+00  1.647847737615E+00  1.657749654670E+00  1.667711072345E+00
  1.672714205562E+00  1.677732348179E+00  1.682765545224E+00  1.687813841859E+00
  1.692877283385E+00  1.697955915235E+00  1.703049782981E+00  1.708158932330E+00
  1.713283409127E+00  1.718423259354E+00  1.723578529132E+00  1.728749264719E+00
  1.733935512514E+00  1.739137319051E+00  1.744354731008E+00  1.749587795201E+00
  1.754836558587E+00  1.760101068263E+00  1.765381371467E+00  1.770677515582E+00
  1.775989548129E+00  1.781317516773E+00  1.786661469323E+00  1.792021453731E+00
  1.797397518092E+00  1.802789710647E+00  1.808198079779E+00  1.813622674018E+00
  1.819063542040E+00  1.824520732666E+00  1.829994294864E+00  1.835484277749E+00
  1.840990730582E+00  1.846513702774E+00  1.852053243882E+00  1.857609403614E+00
  1.863182231825E+00  1.868771778520E+00  1.874378093856E+00  1.880001228137E+00
  1.885641231822E+00  1.891298155517E+00  1.896972049984E+00  1.902662966134E+00
  1.908370955032E+00  1.914096067897E+00  1.919838356101E+00  1.925597871169E+00
  1.931374664783E+00  1.937168788777E+00  1.942980295143E+00  1.948809236029E+00
  1.954655663737E+00  1.960519630728E+00  1.966401189620E+00  1.972300393189E+00
  1.978217294369E+00  1.984151946252E+00  1.990104402090E+00  1.996074715297E+00
  2.002062939443E+00  2.008069128261E+00  2.014093335646E+00  2.020135615653E+00
  2.026196022500E+00  2.032274610567E+00  2.038371434399E+00  2.044486548702E+00
  2.050620008348E+00  2.056771868373E+00  2.062942183978E+00  2.069131010530E+00
  2.075338403562E+00  2.081564418772E+00  2.087809112029E+00  2.094072539365E+00
  2.100354756983E+00  2.106655821254E+00  2.112975788718E+00  2.119314716084E+00
  2.125672660232E+00  2.132049678213E+00  2.138445827247E+00  2.144861164729E+00
  2.151295748223E+00  2.157749635468E+00  2.164222884374E+00  2.170715553028E+00
  2.177227699687E+00  2.183759382786E+00  2.190310660934E+00  2.196881592917E+00
  2.203472237696E+00  2.210082654409E+00  2.216712902372E+00  2.223363041079E+00
  2.230033130202E+00  2.236723229593E+00  2.243433399282E+00  2.250163699480E+00
  2.256914190578E+00  2.263684933150E+00  2.270475987949E+00  2.277287415913E+00
  2.284119278161E+00  2.290971635995E+00  2.297844550903E+00  2.304738084556E+00
  2.311652298810E+00  2.318587255706E+00  2.325543017473E+00  2.332519646526E+00
  2.339517205465E+00  2.346535757081E+00  2.353575364353E+00  2.360636090446E+00
  2.367717998717E+00  2.374821152713E+00  2.381945616171E+00  2.389091453020E+00
  2.396258727379E+00  2.403447503561E+00  2.410657846072E+00  2.417889819610E+00
  2.425143489069E+00  2.432418919536E+00  2.439716176295E+00  2.447035324824E+00
  2.454376430798E+00  2.461739560090E+00  2.469124778771E+00  2.476532153107E+00
  2.483961749566E+00  2.491413634815E+00  2.498887875719E+00  2.506384539347E+00
  2.513903692965E+00  2.521445404044E+00  2.529009740256E+00  2.536596769476E+00
  2.544206559785E+00  2.551839179464E+00  2.559494697003E+00  2.567173181094E+00
  2.574874700637E+00  2.582599324739E+00  2.590347122713E+00  2.598118164081E+00
  2.605912518573E+00  2.613730256129E+00  2.621571446898E+00  2.629436161238E+00
  2.637324469722E+00  2.645236443131E+00  2.653172152461E+00  2.661131668918E+00
  2.669115063925E+00  2.677122409116E+00  2.685153776344E+00  2.693209237673E+00
  2.701288865386E+00  2.709392731982E+00  2.717520910178E+00  2.725673472908E+00
  2.733850493327E+00  2.742052044807E+00  2.750278200942E+00  2.758529035544E+00
  2.766804622651E+00  2.775105036519E+00  2.783430351629E+00  2.791780642683E+00
  2.800155984611E+00  2.808556452565E+00  2.816982121923E+00  2.825433068289E+00
  2.833909367494E+00  2.842411095596E+00  2.850938328883E+00  2.859491143870E+00
  2.868069617301E+00  2.876673826153E+00  2.885303847632E+00  2.893959759174E+00
  2.902641638452E+00  2.911349563367E+00  2.920083612057E+00  2.928843862894E+00
  2.937630394482E+00  2.946443285666E+00  2.955282615523E+00  2.964148463369E+00
  2.973040908759E+00  2.981960031486E+00  2.990905911580E+00  2.999878629315E+00
  3.008878265203E+00  3.017904899998E+00  3.026958614698E+00  3.036039490542E+00
  3.045147609014E+00  3.054283051841E+00  3.063445900997E+00  3.072636238700E+00
  3.081854147416E+00  3.091099709858E+00  3.100373008988E+00  3.109674128015E+00
  3.119003150399E+00  3.128360159850E+00  3.137745240329E+00  3.147158476050E+00
  3.156599951478E+00  3.166069751333E+00  3.175567960587E+00  3.185094664469E+00
  3.194649948462E+00  3.204233898307E+00  3.213846600002E+00  3.223488139802E+00
  3.233158604222E+00  3.242858080034E+00  3.252586654275E+00  3.262344414237E+00
  3.272131447480E+00  3.281947841823E+00  3.291793685348E+00  3.301669066404E+00
  3.311574073603E+00  3.321508795824E+00  3.331473322212E+00  3.341467742178E+00
  3.351492145405E+00  3.361546621841E+00  3.371631261706E+00  3.381746155492E+00
  3.391891393958E+00  3.402067068140E+00  3.412273269344E+00  3.422510089152E+00
  3.432777619420E+00  3.443075952278E+00  3.453405180135E+00  3.463765395675E+00
  3.474156691862E+00  3.484579161938E+00  3.495032899424E+00  3.505517998122E+00
  3.516034552116E+00  3.526582655773E+00  3.537162403740E+00  3.547773890951E+00
  3.558417212624E+00  3.569092464262E+00  3.579799741655E+00  3.590539140880E+00
  3.601310758302E+00  3.612114690577E+00  3.622951034649E+00  3.633819887753E+00
  3.644721347416E+00  3.655655511458E+00  3.666622477993E+00  3.677622345427E+00
  3.688655212463E+00  3.699721178101E+00  3.710820341635E+00  3.721952802660E+00
  3.733118661068E+00  3.744318017051E+00  3.755550971102E+00  3.766817624015E+00
  3.778118076887E+00  3.789452431118E+00  3.800820788411E+00  3.812223250777E+00
  3.823659920529E+00  3.835130900291E+00  3.846636292991E+00  3.858176201870E+00
  3.869750730476E+00  3.881359982667E+00  3.893004062615E+00  3.904683074803E+00
  3.916397124028E+00  3.928146315400E+00  3.939930754346E+00  3.951750546609E+00
  3.963605798249E+00  3.975496615644E+00  3.987423105491E+00  3.999385374807E+00
  4.011383530931E+00  4.023417681524E+00  4.035487934569E+00  4.047594398372E+00
  4.059737181568E+00  4.071916393112E+00  4.084132142292E+00  4.096384538719E+00
  4.108673692335E+00  4.120999713412E+00  4.133362712552E+00  4.145762800690E+00
  4.158200089092E+00  4.170674689359E+00  4.183186713427E+00  4.195736273567E+00
  4.208323482388E+00  4.220948452835E+00  4.233611298194E+00  4.246312132088E+00
  4.259051068484E+00  4.271828221690E+00  4.284643706355E+00  4.297497637474E+00
  4.310390130386E+00  4.323321300778E+00  4.336291264680E+00  4.349300138474E+00
  4.362348038889E+00  4.375435083006E+00  4.388561388255E+00  4.401727072420E+00
  4.414932253637E+00  4.428177050398E+00  4.441461581549E+00  4.454785966294E+00
  4.468150324193E+00  4.481554775165E+00  4.494999439491E+00  4.508484437809E+00
  4.522009891123E+00  4.535575920796E+00  4.549182648559E+00  4.562830196504E+00
  4.576518687094E+00  4.590248243155E+00  4.604018987884E+00  4.617831044848E+00
  4.631684537983E+00  4.645579591597E+00  4.659516330371E+00  4.673494879363E+00
  4.687515364001E+00  4.701577910093E+00  4.715682643823E+00  4.729829691754E+00
  4.744019180830E+00  4.758251238372E+00  4.772525992087E+00  4.786843570063E+00
  4.801204100774E+00  4.815607713076E+00  4.830054536215E+00  4.844544699824E+00
  4.859078333923E+00  4.873655568925E+00  4.888276535632E+00  4.902941365239E+00
  4.917650189334E+00  4.932403139902E+00  4.947200349322E+00  4.962041950370E+00
  4.976928076221E+00  4.991858860450E+00  5.006834437031E+00  5.021854940342E+00
  5.036920505163E+00  5.052031266679E+00  5.067187360479E+00  5.082388922560E+00
  5.097636089328E+00  5.112928997596E+00  5.128267784589E+00  5.143652587943E+00
  5.159083545706E+00  5.174560796344E+00  5.190084478733E+00  5.205654732169E+00
  5.221271696365E+00  5.236935511454E+00  5.252646317989E+00  5.268404256943E+00
  5.284209469713E+00  5.300062098123E+00  5.315962284417E+00  5.331910171270E+00
  5.347905901784E+00  5.363949619489E+00  5.380041468348E+00  5.396181592753E+00
  5.412370137531E+00  5.428607247944E+00  5.444893069688E+00  5.461227748897E+00
  5.477611432143E+00  5.494044266440E+00  5.510526399239E+00  5.527057978437E+00
  5.543639152372E+00  5.560270069829E+00  5.576950880039E+00  5.593681732679E+00
  5.610462777877E+00  5.627294166211E+00  5.644176048709E+00  5.661108576855E+00
  5.678091902586E+00  5.695126178294E+00  5.712211556828E+00  5.729348191499E+00
  5.746536236073E+00  5.763775844782E+00  5.781067172316E+00  5.798410373833E+00
  5.815805604954E+00  5.833253021769E+00  5.850752780835E+00  5.868305039177E+00
  5.885909954295E+00  5.903567684158E+00  5.921278387210E+00  5.939042222372E+00
  5.956859349039E+00  5.974729927086E+00  5.992654116867E+00  6.010632079218E+00
  6.028663975455E+00  6.046749967382E+00  6.064890217284E+00  6.083084887936E+00
  6.101334142600E+00  6.119638145027E+00  6.137997059462E+00  6.156411050641E+00
  6.174880283793E+00  6.193404924644E+00  6.211985139418E+00  6.230621094836E+00
  6.249312958121E+00  6.268060896995E+00  6.286865079686E+00  6.305725674925E+00
  6.324642851950E+00  6.343616780506E+00  6.362647630847E+00  6.381735573740E+00
  6.400880780461E+00  6.420083422803E+00  6.439343673071E+00  6.458661704090E+00
  6.478037689202E+00  6.497471802270E+00  6.516964217677E+00  6.536515110330E+00
  6.556124655661E+00  6.575793029628E+00  6.595520408717E+00  6.615306969943E+00
  6.635152890853E+00  6.655058349525E+00  6.675023524574E+00  6.695048595148E+00
  6.715133740933E+00  6.735279142156E+00  6.755484979582E+00  6.775751434521E+00
  6.796078688825E+00  6.816466924891E+00  6.836916325666E+00  6.857427074643E+00
  6.877999355867E+00  6.898633353934E+00  6.919329253996E+00  6.940087241758E+00
  6.960907503483E+00  6.981790225994E+00  7.002735596672E+00  7.023743803462E+00
  7.044815034872E+00  7.065949479977E+00  7.087147328417E+00  7.108408770402E+00
  7.129733996713E+00  7.151123198703E+00  7.172576568299E+00  7.194094298004E+00
  7.215676580898E+00  7.237323610641E+00  7.259035581473E+00  7.280812688217E+00
  7.302655126282E+00  7.324563091661E+00  7.346536780936E+00  7.368576391279E+00
  7.390682120452E+00  7.412854166814E+00  7.435092729314E+00  7.457398007502E+00
  7.479770201525E+00  7.502209512129E+00  7.524716140666E+00  7.547290289088E+00
  7.569932159955E+00  7.592641956435E+00  7.615419882304E+00  7.638266141951E+00
  7.661180940377E+00  7.684164483198E+00  7.707216976648E+00  7.730338627577E+00
  7.753529643460E+00  7.776790232391E+00  7.800120603088E+00  7.823520964897E+00
  7.846991527792E+00  7.870532502375E+00  7.894144099882E+00  7.917826532182E+00
  7.941580011778E+00  7.965404751814E+00  7.989300966069E+00  8.013268868967E+00
  8.037308675574E+00  8.061420601601E+00  8.085604863406E+00  8.109861677996E+00
  8.134191263030E+00  8.158593836819E+00  8.183069618330E+00  8.207618827185E+00
  8.232241683666E+00  8.256938408717E+00  8.281709223943E+00  8.306554351615E+00
  8.331474014670E+00  8.356468436714E+00  8.381537842024E+00  8.406682455550E+00
  8.431902502917E+00  8.457198210426E+00  8.482569805057E+00  8.508017514472E+00
  8.533541567015E+00  8.559142191716E+00  8.584819618292E+00  8.610574077146E+00
  8.636405799378E+00  8.662315016776E+00  8.688301961826E+00  8.714366867712E+00
  8.740509968315E+00  8.766731498220E+00  8.793031692715E+00  8.819410787793E+00
  8.845869020156E+00  8.872406627217E+00  8.899023847098E+00  8.925720918640E+00
  8.952498081395E+00  8.979355575640E+00  9.006293642367E+00  9.033312523294E+00
  9.060412460864E+00  9.087593698246E+00  9.114856479341E+00  9.142201048779E+00
  9.169627651925E+00  9.197136534881E+00  9.224727944486E+00  9.252402128319E+00
  9.280159334704E+00  9.307999812708E+00  9.335923812146E+00  9.363931583583E+00
  9.392023378333E+00  9.420199448468E+00  9.448460046814E+00  9.476805426954E+00
  9.505235843235E+00  9.533751550765E+00  9.562352805417E+00  9.591039863833E+00
  9.619812983425E+00  9.648672422375E+00  9.677618439642E+00  9.706651294961E+00
  9.735771248846E+00  9.764978562593E+00  9.794273498280E+00  9.823656318775E+00
  9.853127287732E+00  9.882686669595E+00  9.912334729604E+00  9.942071733792E+00
  9.971897948994E+00  1.000181364284E+01  1.003181908377E+01  1.006191454102E+01
  1.009210028464E+01  1.012237658550E+01  1.015274371525E+01  1.018320194640E+01
  1.021375155224E+01  1.024439280690E+01  1.027512598532E+01  1.030595136327E+01
  1.033686921736E+01  1.036787982501E+01  1.039898346449E+01  1.043018041488E+01
  1.046147095613E+01  1.049285536900E+01  1.052433393510E+01  1.055590693691E+01
  1.058757465772E+01  1.061933738169E+01  1.065119539384E+01  1.068314898002E+01
  1.071519842696E+01  1.074734402224E+01  1.077958605431E+01  1.081192481247E+01
  1.084436058691E+01  1.087689366867E+01  1.090952434967E+01  1.094225292272E+01
  1.097507968149E+01  1.100800492053E+01  1.104102893530E+01  1.107415202210E+01
  1.110737447817E+01  1.114069660160E+01  1.117411869141E+01  1.120764104748E+01
  1.124126397062E+01  1.127498776254E+01  1.130881272582E+01  1.134273916400E+01
  1.137676738149E+01  1.141089768364E+01  1.144513037669E+01  1.147946576782E+01
  1.151390416512E+01  1.154844587762E+01  1.158309121525E+01  1.161784048890E+01
  1.165269401036E+01  1.168765209239E+01  1.172271504867E+01  1.175788319382E+01
  1.179315684340E+01  1.182853631393E+01  1.186402192287E+01  1.189961398864E+01
  1.193531283061E+01  1.197111876910E+01  1.200703212540E+01  1.204305322178E+01
  1.207918238145E+01  1.211541992859E+01  1.215176618838E+01  1.218822148694E+01
  1.222478615140E+01  1.226146050986E+01  1.229824489139E+01  1.233513962606E+01
  1.237214504494E+01  1.240926148007E+01  1.244648926451E+01  1.248382873231E+01
  1.252128021850E+01  1.255884405916E+01  1.259652059134E+01  1.263431015311E+01
  1.267221308357E+01  1.271022972282E+01  1.274836041199E+01  1.278660549323E+01
  1.282496530970E+01  1.286344020563E+01  1.290203052625E+01  1.294073661783E+01
  1.297955882768E+01  1.301849750417E+01  1.305755299668E+01  1.309672565567E+01
  1.313601583264E+01  1.317542388013E+01  1.321495015177E+01  1.325459500223E+01
  1.329435878724E+01  1.333424186360E+01  1.337424458919E+01  1.341436732296E+01
  1.345461042492E+01  1.349497425620E+01  1.353545917897E+01  1.357606555651E+01
  1.361679375317E+01  1.365764413443E+01  1.369861706684E+01  1.373971291804E+01
  1.378093205679E+01  1.382227485296E+01  1.386374167752E+01  1.390533290255E+01
  1.394704890126E+01  1.398889004797E+01  1.403085671811E+01  1.407294928826E+01
  1.411516813613E+01  1.415751364054E+01  1.419998618146E+01  1.424258614000E+01
  1.428531389842E+01  1.432816984012E+01  1.437115434964E+01  1.441426781269E+01
  1.445751061613E+01  1.450088314797E+01  1.454438579742E+01  1.458801895481E+01
  1.463178301167E+01  1.467567836071E+01  1.471970539579E+01  1.476386451198E+01
  1.480815610551E+01  1.485258057383E+01  1.489713831555E+01  1.494182973050E+01
  1.498665521969E+01  1.503161518535E+01  1.507671003091E+01  1.512194016100E+01
  1.516730598148E+01  1.521280789943E+01  1.525844632312E+01  1.530422166209E+01
  1.535013432708E+01  1.539618473006E+01  1.544237328425E+01  1.548870040410E+01
  1.553516650532E+01  1.558177200483E+01  1.562851732085E+01  1.567540287281E+01
  1.572242908143E+01  1.576959636867E+01  1.581690515778E+01  1.586435587325E+01
  1.591194894087E+01  1.595968478769E+01  1.600756384206E+01  1.605558653358E+01
  1.610375329318E+01  1.615206455306E+01  1.620052074672E+01  1.624912230896E+01
  1.629786967589E+01  1.634676328492E+01  1.639580357477E+01  1.644499098550E+01
  1.649432595845E+01  1.654380893633E+01  1.659344036314E+01  1.664322068423E+01
  1.669315034628E+01  1.674322979732E+01  1.679345948671E+01  1.684383986517E+01
  1.689437138477E+01  1.694505449892E+01  1.699588966242E+01  1.704687733140E+01
  1.709801796340E+01  1.714931201729E+01  1.720075995334E+01  1.725236223320E+01
  1.730411931990E+01  1.735603167786E+01  1.740809977289E+01  1.746032407221E+01
  1.751270504443E+01  1.756524315956E+01  1.761793888904E+01  1.767079270571E+01
  1.772380508383E+01  1.777697649908E+01  1.783030742857E+01  1.788379835086E+01
  1.793744974591E+01  1.799126209515E+01  1.804523588144E+01  1.809937158908E+01
  1.815366970385E+01  1.820813071296E+01  1.826275510510E+01  1.831754337041E+01
  1.837249600052E+01  1.842761348853E+01  1.848289632899E+01  1.853834501798E+01
  1.859396005303E+01  1.864974193319E+01  1.870569115899E+01  1.876180823247E+01
  1.881809365716E+01  1.887454793814E+01  1.893117158195E+01  1.898796509670E+01
  1.904492899199E+01  1.910206377896E+01  1.915936997030E+01  1.921684808021E+01
  1.927449862445E+01  1.933232212032E+01  1.939031908669E+01  1.944849004395E+01
  1.950683551408E+01  1.956535602062E+01  1.962405208868E+01  1.968292424495E+01
  1.974197301768E+01  1.980119893674E+01  1.986060253355E+01  1.992018434115E+01
  1.997994489417E+01  2.003988472885E+01  2.010000438304E+01  2.016030439619E+01
  2.022078530938E+01  2.028144766530E+01  2.034229200830E+01  2.040331888433E+01
  2.046452884098E+01  2.052592242750E+01  2.058750019478E+01  2.064926269537E+01
  2.071121048345E+01  2.077334411490E+01  2.083566414725E+01  2.089817113969E+01
  2.096086565311E+01  2.102374825007E+01  2.108681949482E+01  2.115007995330E+01
  2.121353019316E+01  2.127717078374E+01  2.134100229609E+01  2.140502530298E+01
  2.146924037889E+01  2.153364810003E+01  2.159824904433E+01  2.166304379146E+01
  2.172803292284E+01  2.179321702160E+01  2.185859667267E+01  2.192417246269E+01
  2.198994498008E+01  2.205591481502E+01  2.212208255946E+01  2.218844880714E+01
  2.225501415356E+01  2.232177919602E+01  2.238874453361E+01  2.245591076721E+01
  2.252327849951E+01  2.259084833501E+01  2.265862088002E+01  2.272659674266E+01
  2.279477653288E+01  2.286316086248E+01  2.293175034507E+01  2.300054559610E+01
  2.306954723289E+01  2.313875587459E+01  2.320817214222E+01  2.327779665864E+01
  2.334763004862E+01  2.341767293876E+01  2.348792595758E+01  2.355838973545E+01
  2.362906490466E+01  2.369995209937E+01  2.377105195567E+01  2.384236511154E+01
  2.391389220687E+01  2.398563388349E+01  2.405759078514E+01  2.412976355750E+01
  2.420215284817E+01  2.427475930672E+01  2.434758358464E+01  2.442062633539E+01
  2.449388821440E+01  2.456736987904E+01  2.464107198868E+01  2.471499520464E+01
  2.478914019026E+01  2.486350761083E+01  2.493809813366E+01  2.501291242806E+01
  2.508795116534E+01  2.516321501884E+01  2.523870466390E+01  2.531442077789E+01
  2.539036404022E+01  2.546653513234E+01  2.554293473774E+01  2.561956354195E+01
  2.569642223258E+01  2.577351149928E+01  2.585083203378E+01  2.592838452988E+01
  2.600616968347E+01  2.608418819252E+01  2.616244075709E+01  2.624092807937E+01
  2.631965086360E+01  2.639860981619E+01  2.647780564564E+01  2.655723906258E+01
  2.663691077977E+01  2.671682151211E+01  2.679697197664E+01  2.687736289257E+01
  2.695799498125E+01  2.703886896619E+01  2.711998557309E+01  2.720134552981E+01
  2.728294956640E+01  2.736479841510E+01  2.744689281035E+01  2.752923348878E+01
  2.761182118924E+01  2.769465665281E+01  2.777774062277E+01  2.786107384464E+01
  2.794465706617E+01  2.802849103737E+01  2.811257651048E+01  2.819691424001E+01
  2.828150498273E+01  2.836634949768E+01  2.845144854618E+01  2.853680289181E+01
  2.862241330049E+01  2.870828054039E+01  2.879440538201E+01  2.888078859816E+01
  2.896743096395E+01  2.905433325684E+01  2.914149625661E+01  2.922892074538E+01
  2.931660750762E+01  2.940455733014E+01  2.949277100213E+01  2.958124931514E+01
  2.966999306309E+01  2.975900304228E+01  2.984828005140E+01  2.993782489156E+01
  3.002763836623E+01  3.011772128133E+01  3.020807444517E+01  3.029869866851E+01
  3.038959476451E+01  3.048076354881E+01  3.057220583945E+01  3.066392245697E+01
  3.075591422434E+01  3.084818196702E+01  3.094072651292E+01  3.103354869246E+01
  3.112664933853E+01  3.122002928655E+01  3.131368937441E+01  3.140763044253E+01
  3.150185333386E+01  3.159635889386E+01  3.169114797054E+01  3.178622141445E+01
  3.188158007870E+01  3.197722481893E+01  3.207315649339E+01  3.216937596287E+01
  3.226588409076E+01  3.236268174303E+01  3.245976978826E+01  3.255714909763E+01
  3.265482054492E+01  3.275278500655E+01  3.285104336157E+01  3.294959649166E+01
  3.304844528113E+01  3.314759061698E+01  3.324703338883E+01  3.334677448899E+01
  3.344681481246E+01  3.354715525690E+01  3.364779672267E+01  3.374874011284E+01
  3.384998633318E+01  3.395153629218E+01  3.405339090105E+01  3.415555107375E+01
  3.425801772698E+01  3.436079178016E+01  3.446387415550E+01  3.456726577796E+01
  3.467096757530E+01  3.477498047802E+01  3.487930541946E+01  3.498394333572E+01
  3.508889516572E+01  3.519416185122E+01  3.529974433677E+01  3.540564356978E+01
  3.551186050049E+01  3.561839608200E+01  3.572525127024E+01  3.583242702405E+01
  3.593992430512E+01  3.604774407804E+01  3.615588731027E+01  3.626435497220E+01
  3.637314803712E+01  3.648226748123E+01  3.659171428368E+01  3.670148942653E+01
  3.681159389481E+01  3.692202867649E+01  3.703279476252E+01  3.714389314681E+01
  3.725532482625E+01  3.736709080073E+01  3.747919207313E+01  3.759162964935E+01
  3.770440453830E+01  3.781751775191E+01  3.793097030517E+01  3.804476321608E+01
  3.815889750573E+01  3.827337419825E+01  3.838819432084E+01  3.850335890381E+01
  3.861886898052E+01  3.873472558746E+01  3.885092976422E+01  3.896748255351E+01
  3.908438500117E+01  3.920163815618E+01  3.931924307065E+01  3.943720079986E+01
  3.955551240226E+01  3.967417893946E+01  3.979320147628E+01  3.991258108071E+01
  4.003231882395E+01  4.015241578043E+01  4.027287302777E+01  4.039369164685E+01
  4.051487272179E+01  4.063641733996E+01  4.075832659198E+01  4.088060157175E+01
  4.100324337647E+01  4.112625310660E+01  4.124963186592E+01  4.137338076151E+01
  4.149750090380E+01  4.162199340651E+01  4.174685938673E+01  4.187209996489E+01
  4.199771626478E+01  4.212370941358E+01  4.225008054182E+01  4.237683078344E+01
  4.250396127580E+01  4.263147315962E+01  4.275936757910E+01  4.288764568184E+01